LAMMPS (3 Mar 2020)
OMP_NUM_THREADS environment is not set. Defaulting to 1 thread. (src/comm.cpp:94)
  using 1 OpenMP thread(s) per MPI task
ERROR on proc 0: Cannot open input script /home/dux/surface_sampling/tmp_files/in_lammps000001_q34lhep (src/input.cpp:256)
Last command: (unknown)
