LAMMPS (10 Feb 2021)
OMP_NUM_THREADS environment is not set. Defaulting to 1 thread. (src/comm.cpp:94)
  using 1 OpenMP thread(s) per MPI task

clear
OMP_NUM_THREADS environment is not set. Defaulting to 1 thread. (src/comm.cpp:94)
  using 1 OpenMP thread(s) per MPI task
atom_style atomic
units metal
boundary p p p
atom_modify sort 0 0.0

# read_data /path/to/data.data
read_data /home/dux/surface_sampling/sgmc_surf/GaN/lammps.data
Reading data file ...
  triclinic box = (0.0000000 0.0000000 0.0000000) to (9.6488700 8.3561665 23.265800) with tilt (-4.8244350 0.0000000 0.0000000)
  1 by 1 by 1 MPI processor grid
  reading atoms ...
  48 atoms
  read_data CPU = 0.000 seconds

### set bulk
group bulk id <= 36
36 atoms in group bulk
group surface id > 36
12 atoms in group surface

### interactions
pair_style tersoff
# pair_coeff * * /path/to/potential Atom1 Atom2
pair_coeff * * GaN.tersoff Ga N
Reading tersoff potential file GaN.tersoff with DATE: 2007-10-22
mass 1 69.723000
mass 2 14.007000

### run
reset_timestep 0
velocity surface create 100.0 87287 dist gaussian

fix 1 all nvt temp 100.0 0.1 $(100.0*dt)
fix 1 all nvt temp 100.0 0.1 0.10000000000000000555

# set bulk forces and velocities to 0
fix 2 bulk setforce 0.0 0.0 0.0
velocity bulk set 0.0 0.0 0.0

thermo 10 # output thermodynamic variables every N timesteps

thermo_style custom step temp pe press cpu pxx pyy pzz pxy pxz pyz ke etotal vol lx ly lz atoms
thermo_modify flush yes format float %23.16g
# min_style cg
# minimize 1e-5 1e-5 500 10000

timestep 0.001
run 3000
Neighbor list info ...
  update every 1 steps, delay 10 steps, check yes
  max neighbors/atom: 2000, page size: 100000
  master list distance cutoff = 5.1
  ghost atom cutoff = 5.1
  binsize = 2.55, bins = 6 4 10
  1 neighbor lists, perpetual/occasional/extra = 1 0 0
  (1) pair tersoff, perpetual
      attributes: full, newton on
      pair build: full/bin/atomonly
      stencil: full/bin/3d
      bin: standard
Per MPI rank memory allocation (min/avg/max) = 2.941 | 2.941 | 2.941 Mbytes
Step Temp PotEng Press CPU Pxx Pyy Pzz Pxy Pxz Pyz KinEng TotEng Volume Lx Ly Lz Atoms
       0       23.40425531914894      -180.2260107297884      -14091.00347877591                       0      -13368.51047292373      -16883.08862806456      -12021.41133533945       757.9314440420326       -393.911987297343       712.2291221633251            0.1421861595      -180.0838245702884       1875.864792975853       9.648870000000001       8.356166537813557                 23.2658       48
      10        18.7405947505041      -180.1966749060816      -14664.49073990068    0.003278017044067383      -13419.51622154205       -17373.3307331974      -13200.62526496261         764.41168970833      -187.2584078580685       510.9810765002884      0.1138533637573108      -180.0828215423243       1875.864792975853       9.648870000000001       8.356166537813557                 23.2658       48
      20       11.29009211426955      -180.1492613585287      -15792.68890770877    0.006400108337402344      -14167.30745094742      -18356.38729846925      -14854.37197370963       1091.240662863001       201.0593548460162       250.6342821873836     0.06858987035643041      -180.0806714881723       1875.864792975853       9.648870000000001       8.356166537813557                 23.2658       48
      30       8.112165072300337      -180.1276745095886      -16224.61044833677    0.008550167083740234      -14811.30902620823      -18993.58956275294      -14868.93275604913       1593.263370105747       260.2291404943717       66.64636486894508     0.04928324277494543      -180.0783912668136       1875.864792975853       9.648870000000001       8.356166537813557                 23.2658       48
      40       10.23194346624587      -180.1374758034352      -15629.50232120841     0.01072120666503906      -15198.94502512239      -18254.71141239741      -13434.85052610544       1599.394405863904      -74.10890619717469       50.22642919920446     0.06216137731570095      -180.0753144261195       1875.864792975853       9.648870000000001       8.356166537813557                 23.2658       48
      50        10.2080874914375      -180.1331914934878        -15413.961819706     0.01291322708129883      -15534.96713209369      -18803.01019981731      -11903.90812720701       1230.936550055919      -444.7854022599453       395.1132433367486     0.06201644685784717      -180.0711750466299       1875.864792975853       9.648870000000001       8.356166537813557                 23.2658       48
      60       9.500945442149479      -180.1252169532761      -15700.92404570738     0.01508402824401855       -15792.7518324996      -19388.43834716162      -11921.58195746093       668.3404297075001      -474.7850810551834       896.3879169916473     0.05772039851799855      -180.0674965547581       1875.864792975853       9.648870000000001       8.356166537813557                 23.2658       48
      70       14.68583454559071      -180.1527021129101      -15635.30578750737     0.01691007614135742      -15060.90733049773      -18676.07779219819      -13168.93223982619       57.70977154604135      -250.0365761463097       1151.540335941376     0.08921977583202605      -180.0634823370781       1875.864792975853       9.648870000000001       8.356166537813557                 23.2658       48
      80       20.34225501521849      -180.1814556901819      -14945.54602146569     0.01847505569458008       -14405.5563811665      -16782.51465535161      -13648.56702787898      -187.7738599599748      -84.58176610381612       1095.531797357144      0.1235838131460236      -180.0578718770359       1875.864792975853       9.648870000000001       8.356166537813557                 23.2658       48
      90        21.3041754912142      -180.1808699206476      -13979.21768878618     0.02002215385437012       -13620.6161575952      -15979.80855249373      -12337.22835626961       318.9515488621515      -179.7304754109266       743.9300651740569      0.1294276982156903      -180.0514422224319       1875.864792975853       9.648870000000001       8.356166537813557                 23.2658       48
     100       18.67172457225363      -180.1585441932941      -13619.71266186403     0.02155518531799316      -13616.80867538325      -16201.05160621835       -11041.2777039905       313.6967670576835      -737.5628274949424       197.8682930602205      0.1134349618036497      -180.0451092314905       1875.864792975853       9.648870000000001       8.356166537813557                 23.2658       48
     110       14.45106408946214      -180.1273277845309       -13984.6848895088     0.02306818962097168      -14133.27796395603      -16747.46147859803      -11073.31522597235       576.6793541332318      -1355.920145729168      -19.90149353611326     0.08779349206158393      -180.0395342924693       1875.864792975853       9.648870000000001       8.356166537813557                 23.2658       48
     120       14.76403590436112      -180.1240156541187      -14712.30388400499      0.0245811939239502      -14692.33101779893      -17170.36069497604         -12274.21993924       767.8359737642809      -1386.191047190595      -18.16400750403056     0.08969486682379745      -180.0343207872949       1875.864792975853       9.648870000000001       8.356166537813557                 23.2658       48
     130       17.94372350360412      -180.1367751108952      -15782.04018020464     0.02610516548156738       -15439.0212560386      -17822.76765987925      -14084.33162469607       501.5876847459374       -892.753272012203        322.986878600281      0.1090121901900415      -180.0277629207052       1875.864792975853       9.648870000000001       8.356166537813557                 23.2658       48
     140       15.91856697693891       -180.117285098022      -16546.65723055735     0.02764105796813965      -16250.16909870424       -18749.3489220794      -14640.45367088841       253.4483972762388      -529.1447712295276       787.2890580675959     0.09670890495467276      -180.0205761930673       1875.864792975853       9.648870000000001       8.356166537813557                 23.2658       48
     150       16.30274541261117      -180.1129988642073      -15962.07490658183     0.02921104431152344      -16280.41836201145       -19084.1233137332      -12521.68304400083       322.2243001430163      -666.3921010836648       1073.264861796357     0.09904287608881363      -180.0139559881185       1875.864792975853       9.648870000000001       8.356166537813557                 23.2658       48
     160       22.31425585052448      -180.1412894713663      -14853.14867681212     0.03082799911499023      -15538.96304796367      -18997.47750616451      -10023.00547630816       622.5100887587158      -1397.793479566266       711.3013343870938       0.135564165499877      -180.0057253058664       1875.864792975853       9.648870000000001       8.356166537813557                 23.2658       48
     170       24.98564887788711      -180.1470921393801      -13773.09115854006     0.03241705894470215      -14606.82284813617      -18071.49400438216      -8640.956623101843       1186.295813864914      -2103.211348801937      -98.65287609832149      0.1517934840531144       -179.995298655327       1875.864792975853       9.648870000000001       8.356166537813557                 23.2658       48
     180       25.42411150769312       -180.139002849131      -13987.33528263215     0.03402900695800781      -13978.05177246315      -17445.57607778045      -10538.37799765285       1354.987126911641      -2123.336170714505      -500.6112754184595      0.1544572439790873      -179.9845456051519       1875.864792975853       9.648870000000001       8.356166537813557                 23.2658       48
     190       28.09464640074936      -180.1437358495675      -14719.18119444733     0.03561806678771973      -13722.48784264389      -17121.28152314668      -13313.77421755141         1324.0581233621      -1534.196972622292      -606.1976216179156      0.1706813491717757      -179.9730545003957       1875.864792975853       9.648870000000001       8.356166537813557                 23.2658       48
     200       28.84365838175678      -180.1359123058799      -15091.54233511948     0.03719115257263184      -14529.74304463779      -17124.91431622364      -13619.96964449701       1658.172535550515      -831.8453535522783      -421.1550912537608      0.1752317668435483      -179.9606805390364       1875.864792975853       9.648870000000001       8.356166537813557                 23.2658       48
     210       28.78769065508171      -180.1231030024591      -14560.56234615524     0.03872919082641602      -14924.99790721663      -17414.73788095547       -11341.9512502936       2019.145172993266      -560.5691811620585       -85.5759205912471      0.1748917502096773      -179.9482112522495       1875.864792975853       9.648870000000001       8.356166537813557                 23.2658       48
     220       28.41717582691335      -180.1083604711462      -14837.27468377014     0.04028010368347168      -16228.49781579755      -18376.53631891541      -9906.789916597463       1593.955403319001      -766.2466856026377       181.5297696776709      0.1726407885902338       -179.935719682556       1875.864792975853       9.648870000000001       8.356166537813557                 23.2658       48
     230       30.40130766870285       -180.107614374084      -15080.26184867821     0.04188799858093262       -16960.1155915763      -19189.40534338746       -9091.26461107087       840.2892816754717       -900.148823776662       184.8227431123739      0.1846948395599687       -179.922919534524       1875.864792975853       9.648870000000001       8.356166537813557                 23.2658       48
     240       36.34039160080133      -180.1290829540033       -16020.9705832009     0.04344010353088379      -17849.72361654307      -20509.43578182885      -9703.752351230785       556.1288748556331      -1039.355045668485       84.83196533621573       0.220776121520789      -179.9083068324825       1875.864792975853       9.648870000000001       8.356166537813557                 23.2658       48
     250       38.64631816212848      -180.1264336097926      -18048.72907101007     0.04501509666442871      -18553.98186420022      -21263.42214888902      -14328.78319994095       266.1147543836175      -786.4181757036646      -836.6045658526518      0.2347851483995845       -179.891648461393       1875.864792975853       9.648870000000001       8.356166537813557                 23.2658       48
     260       33.87980051691038      -180.0816702730616      -20487.00470149548     0.04659819602966309      -18932.24479098498       -22550.9183750561      -19977.85093844535       475.7650838726998       891.2756115357704      -2412.052749930884      0.2058274725871848      -179.8758428004745       1875.864792975853       9.648870000000001       8.356166537813557                 23.2658       48
     270       37.06091452686702      -180.0859150626647      -19572.04091870194     0.04819607734680176       -18405.0994218102      -21759.66510154902      -18551.35823274659       177.7367664080513       1644.868866650262      -2251.551347931831      0.2251534617220456      -179.8607616009427       1875.864792975853       9.648870000000001       8.356166537813557                 23.2658       48
     280       42.99634285115052      -180.1043281077114       -16507.6424706996     0.04984211921691895      -17138.80585251422      -19183.86398472244      -13200.25757486215       43.14511331139012       1461.316134604778        -1054.4107578868      0.2612125350362432      -179.8431155726752       1875.864792975853       9.648870000000001       8.356166537813557                 23.2658       48
     290       42.26481792890168       -180.081292808486      -14787.44035869394     0.05146217346191406      -16089.45106998746      -18536.55461645278      -9736.315389641588       632.6017012839807       1464.671025256193      -855.9713991912929      0.2567683552127563      -179.8245244532732       1875.864792975853       9.648870000000001       8.356166537813557                 23.2658       48
     300       38.38835425469115       -180.040398009492      -14186.97983517113     0.05302810668945312      -15661.11267460979      -18365.19800887711      -8534.628822026511       1200.444045469706       1515.575033864778      -1315.570851713195       0.233217959151819      -179.8071800503402       1875.864792975853       9.648870000000001       8.356166537813557                 23.2658       48
     310        39.9878664775821      -180.0334570555257      -14357.96777977948     0.05457115173339844      -15569.42522267228       -17417.3096229909      -10087.16849367526       1191.392090564506       1736.178472668296      -2073.587981040524      0.2429353586992464      -179.7905216968264       1875.864792975853       9.648870000000001       8.356166537813557                 23.2658       48
     320       44.11947100229467      -180.0402650294636       -14647.8779738979      0.0561521053314209      -15847.71202321709       -16290.3499406948      -11805.57195778181       977.9386802666326       1658.081842733994      -2497.447365995091      0.2680357932967555      -179.7722292361669       1875.864792975853       9.648870000000001       8.356166537813557                 23.2658       48
     330       43.16020292634642      -180.0154099434199      -16288.37771099315     0.05769205093383789       -17366.9410010754      -17551.34753106492      -13946.84460083912       930.2565770272114       605.1474990560708      -2343.440154982872      0.2622080221589813      -179.7532019212609       1875.864792975853       9.648870000000001       8.356166537813557                 23.2658       48
     340       34.94218700554717       -179.948461460915      -17704.05731111799     0.05930900573730469      -18504.45361874802      -19997.47794512216       -14610.2403694838           1073.05387545      -818.7426193096512      -1627.215601570169      0.2122817114708447      -179.7361797494441       1875.864792975853       9.648870000000001       8.356166537813557                 23.2658       48
     350       29.97303022226445      -179.9042771092696      -18126.33806464784     0.06089210510253906      -18949.13314261372      -21820.01373108063      -13609.86732024918       676.4434190319616      -1485.406962163913      -734.7354807177253      0.1820929569331064      -179.7221841523365       1875.864792975853       9.648870000000001       8.356166537813557                 23.2658       48
     360        42.0694190117073       -179.962272920361      -17559.89141106367     0.06243705749511719       -19236.6315229818      -21575.12938481115      -11867.91332539805       376.0653505179438      -1227.789494499251      -564.0590064937146       0.255581262471395      -179.7066916578896       1875.864792975853       9.648870000000001       8.356166537813557                 23.2658       48
     370       55.77382575497257      -180.0231589770874      -16773.89439003928     0.06402802467346191      -18921.14596242511      -20795.12393337682       -10605.4132743159       86.94923629406951        532.340496772761      -654.8808667918267       0.338838641801747      -179.6843203352857       1875.864792975853       9.648870000000001       8.356166537813557                 23.2658       48
     380       54.51331823994448      -179.9916988033741      -17240.82611106817     0.06560802459716797      -18779.01116421608      -20975.05334977816      -11968.41381921027        500.282726503296       2328.003153071351      -910.5652314764856      0.3311807727459393      -179.6605180306282       1875.864792975853       9.648870000000001       8.356166537813557                 23.2658       48
     390       55.37363718926566      -179.9746224142131        -17448.815144766     0.06714415550231934      -18393.58605774872      -20068.02244879675      -13884.83692775252       1060.472488587116       3112.047450536181      -1099.601182835011       0.336407405496308      -179.6382150087167       1875.864792975853       9.648870000000001       8.356166537813557                 23.2658       48
     400       58.03161502612392      -179.9676072792143      -17129.59372808635     0.06876707077026367      -17743.74515468984      -20470.71943753085      -13174.31659203837       1849.201639435646       2875.684262153539      -685.4641296095234       0.352555223724465      -179.6150520554898       1875.864792975853       9.648870000000001       8.356166537813557                 23.2658       48
     410       53.30718574206227      -179.9167751154837      -15431.16759207013     0.07040500640869141      -16905.67978379122      -19358.13544105501      -10029.68755136414       1688.482269052668       2188.550988197012       173.2364522725496      0.3238532442523623      -179.5929218712314       1875.864792975853       9.648870000000001       8.356166537813557                 23.2658       48
     420       55.58725114313175      -179.9095435251577      -14700.60709016672     0.07199501991271973      -17156.27888185524      -19112.67822095678      -7832.864167688121       651.5566287342552       2330.492672456093       1064.163953725932      0.3377051587168934      -179.5718383664408       1875.864792975853       9.648870000000001       8.356166537813557                 23.2658       48
     430       67.75401739951633      -179.9592666111292       -14825.0398787569     0.07361102104187012      -17218.88660108048      -18649.33310546567      -8606.899929724537       292.1709137175419       3416.071609645139       1493.268252282121      0.4116210233295182      -179.5476455877997       1875.864792975853       9.648870000000001       8.356166537813557                 23.2658       48
     440       70.94783101378427      -179.9521881966302      -15756.04869372783     0.07517313957214355      -17639.25909867941      -19607.90914973757      -10020.97783276651       450.3882052057311       3335.601324555619       1515.916243786988      0.4310241654410308      -179.5211640311892       1875.864792975853       9.648870000000001       8.356166537813557                 23.2658       48
     450       64.94744003576616      -179.8910640423338      -16312.87450490923     0.07673406600952148       -17692.3798997691      -20944.86581971787      -10301.37779524071       638.6679899117885       2556.359575999512       1820.507368557212      0.3945704292708911      -179.4964936130629       1875.864792975853       9.648870000000001       8.356166537813557                 23.2658       48
     460       65.03792311617954       -179.869090521664      -18196.24478920357     0.07834219932556152      -19154.02529319429      -21813.26018071694      -13621.44889369947       405.0986530480961       2575.276336548106       1322.463623768947      0.3951201345073223      -179.4739703871566       1875.864792975853       9.648870000000001       8.356166537813557                 23.2658       48
     470        72.3716562127282      -179.8897017834524       -18964.2332515164     0.07991814613342285      -19224.92111864401      -21014.27664091273      -16653.50199499246      -142.7295508632794       1765.639223685733       446.8982199556683      0.4396742264695277      -179.4500275569829       1875.864792975853       9.648870000000001       8.356166537813557                 23.2658       48
     480        76.7318449976619      -179.8910798811255      -16535.47378855015     0.08158612251281738      -17768.28625561292      -19382.54744409937      -12455.58766593817       212.4833255799703       270.4834362513485      -129.3445483078032      0.4661633622942192      -179.4249165188313       1875.864792975853       9.648870000000001       8.356166537813557                 23.2658       48
     490       81.27920878842222        -179.89319871056      -15850.66027717138      0.0830080509185791      -18119.27215427838      -20515.27356180624      -8917.435115429515       936.5621459379258      -141.6800232992553      -126.0046662373847      0.4937896287334064      -179.3994090818266       1875.864792975853       9.648870000000001       8.356166537813557                 23.2658       48
     500       71.08988334641016      -179.8078484240599      -15722.04019682403      0.0844111442565918       -18148.9693418043      -21965.46775301065      -7051.683495657141       1777.772539312809       583.6515821320005        342.177963595315      0.4318871655813329      -179.3759612584786       1875.864792975853       9.648870000000001       8.356166537813557                 23.2658       48
     510       65.81616794459525      -179.7556944417226      -16074.74650733984     0.08577513694763184      -17937.06963293653      -23035.40980615157      -7251.760082931416       2145.492436069278       974.7907676724922       138.9455975846103      0.3998481483575485       -179.355846293365       1875.864792975853       9.648870000000001       8.356166537813557                 23.2658       48
     520       82.05138102699472      -179.8324351292907      -16093.45043810293     0.08716607093811035      -17512.52483944381      -22227.27464809473      -8540.551826770245       2643.610145283882       643.0223855247782       312.9569525281557      0.4984807502229806      -179.3339543790677       1875.864792975853       9.648870000000001       8.356166537813557                 23.2658       48
     530        96.4697818145745      -179.8943188709648      -17477.45252340176     0.08855199813842773      -19088.80000169311      -21136.45812351758      -12207.09944499459        1424.40739890856       269.2386321977212       1349.789248315109      0.5860758053171023      -179.3082430656477       1875.864792975853       9.648870000000001       8.356166537813557                 23.2658       48
     540       97.93331890864279       -179.878591309806      -19752.69377876542     0.08988404273986816      -20467.78946075756      -21681.18892737646      -17109.10294816224       764.4742764024675      -355.9977856364789       3573.373346972976      0.5949671251157332      -179.2836241846902       1875.864792975853       9.648870000000001       8.356166537813557                 23.2658       48
     550       92.76970487872892      -179.8263722899672      -20286.11745499815     0.09120416641235352      -19890.65224429674      -22559.58543513307      -18408.11468556465       766.9585393827608      -819.2880735246187       4980.957251052855      0.5635969986988902      -179.2627752912683       1875.864792975853       9.648870000000001       8.356166537813557                 23.2658       48
     560       89.80867218319005      -179.7909442538829      -19337.08791683554     0.09255814552307129      -19453.74672084504       -21893.2341297274      -16664.28289993418        820.157184430334      -1628.666208570739       4017.477259148605      0.5456080534668608       -179.245336200416       1875.864792975853       9.648870000000001       8.356166537813557                 23.2658       48
     570       94.84395016488402      -179.8055119229071      -16126.75571875803     0.09390902519226074      -17675.66932171857      -19224.94966981036      -11479.64816474516       5.937061736011537      -2287.195020152267       3518.381836164601       0.576198509282227      -179.2293134136249       1875.864792975853       9.648870000000001       8.356166537813557                 23.2658       48
     580       94.41394495843473      -179.7883939983076      -14411.66522445491     0.09526705741882324       -16578.0350938314      -19980.53782331187      -6676.422756221447       172.2878550061966      -1944.426890825057       2421.990961803072      0.5735861301214167      -179.2148078681862       1875.864792975853       9.648870000000001       8.356166537813557                 23.2658       48
     590       89.47530992103854      -179.7464551570131      -14518.89073930855     0.09658503532409668      -16094.49547228805       -20649.7379000766      -6812.438845561001       1331.330393037751      -1282.564593050502       1260.672288177913      0.5435828021127289      -179.2028723549004       1875.864792975853       9.648870000000001       8.356166537813557                 23.2658       48
     600       77.59839441189936       -179.664547755596      -16754.14942350142      0.0979311466217041      -16723.77012584814      -21327.43673179964      -12211.24141285648       2278.599877320054      -1203.531017631528       1578.516398062397      0.4714278465321172      -179.1931199090639       1875.864792975853       9.648870000000001       8.356166537813557                 23.2658       48
     610       64.66970122501964      -179.5774562138456      -20015.34473586355     0.09929800033569336      -18451.46447610501      -22497.81792724139      -19096.75180424425       2127.084479099936      -1018.145395807662        1741.39808756515      0.3928831030002777      -179.1845731108453       1875.864792975853       9.648870000000001       8.356166537813557                 23.2658       48
     620       68.15932814772381      -179.5896251115586      -21203.17271909029      0.1006472110748291      -18944.10433613101      -22789.24934836958      -21876.16447277029       516.4211335601715      -1324.859214963157       1709.846395212725       0.414083378055436      -179.1755417335031       1875.864792975853       9.648870000000001       8.356166537813557                 23.2658       48
     630       97.29773634294492      -179.7544758932478       -19186.4439880131       0.102067232131958      -17118.36220744993       -20531.6843448274      -19909.28541176198      -428.0584051935868      -2082.906453501944       1920.788668017243       0.591105816869459      -179.1633700763784       1875.864792975853       9.648870000000001       8.356166537813557                 23.2658       48
     640       120.2570930515924      -179.8804571879398      -16064.82633883419      0.1033740043640137      -15600.95088962393      -18211.38237503941      -14382.14575183922      -154.0185667506015      -2959.973574462462       2092.714945130328      0.7305891164009841      -179.1498680715388       1875.864792975853       9.648870000000001       8.356166537813557                 23.2658       48
     650       107.9813372841912      -179.7983254655302      -16741.32547754144      0.1046750545501709      -16685.98898673565      -22731.09000075654      -10806.89744513212       504.0581552988172      -2720.609296621109       2549.942903693077      0.6560111157884777      -179.1423143497417       1875.864792975853       9.648870000000001       8.356166537813557                 23.2658       48
     660       84.82852951171084      -179.6556503380399      -19243.10838090303      0.1060571670532227       -19165.1911378451      -26998.72525954173      -11565.40874532226       501.4656732815631      -3112.533619305665       2160.789120834501      0.5153525571665646      -179.1402977808733       1875.864792975853       9.648870000000001       8.356166537813557                 23.2658       48
     670       86.99828649159919      -179.6686273505461      -18846.26639873753      0.1073911190032959      -19953.08287571658      -24536.61986865468      -12049.09645184134       338.6753328331795      -2984.780536146666        431.073158952091      0.5285343229528157      -179.1400930275933       1875.864792975853       9.648870000000001       8.356166537813557                 23.2658       48
     680       83.51580471003845      -179.6482834843186      -17237.61457664649      0.1086862087249756      -18087.47558559323      -21489.42953111894      -12135.93861322729        149.587493464945      -2812.817846641341      -1094.910426831192      0.5073774562507289      -179.1409060280679       1875.864792975853       9.648870000000001       8.356166537813557                 23.2658       48
     690       79.14501364201529      -179.6232290028562      -16515.23024265061      0.1100530624389648      -18526.79106498509       -20545.6437670489      -10473.25589591784        919.420639418712       -2545.98557581648        -2108.8082026301      0.4808239091515121      -179.1424050937046       1875.864792975853       9.648870000000001       8.356166537813557                 23.2658       48
     700       83.82451768915794       -179.653666299551      -14378.94132251708      0.1113741397857666      -17110.70545650454      -18863.57412805396      -7162.544382992743       1166.740288362943       -2676.68133138246      -2551.298207266058      0.5092529576196142      -179.1444133419313       1875.864792975853       9.648870000000001       8.356166537813557                 23.2658       48
     710       87.58082279915507      -179.6795050081189      -11827.41982899584       0.112727165222168       -15073.3585196054      -17685.23509761822        -2723.6658697639       1617.995704269871      -3169.690285741751      -1783.783978061141      0.5320733631491903      -179.1474316449697       1875.864792975853       9.648870000000001       8.356166537813557                 23.2658       48
     720       91.76403530046439       -179.709731531679      -11808.12815217646      0.1141891479492188      -15357.14192342494      -18060.62626338942      -2006.616269715019       1402.309250124747      -2630.566027686129      -391.5105068501268      0.5574873279099878       -179.152244203769       1875.864792975853       9.648870000000001       8.356166537813557                 23.2658       48
     730       93.65823888157854      -179.7286774686906      -15995.19049014829      0.1155710220336914      -18096.05448068549      -19544.80208893783      -10344.71490082154       1624.877887383247      -1416.654392054047       826.7015987308396      0.5689950442990416      -179.1596824243915       1875.864792975853       9.648870000000001       8.356166537813557                 23.2658       48
     740       84.02892092299017      -179.6796603036383      -19963.17642497621      0.1169781684875488      -20154.56962406775      -21765.09366722566      -17969.86598363521        1803.90874973996      -1317.228491930202       2485.605941349069      0.5104947536268645      -179.1691655500115       1875.864792975853       9.648870000000001       8.356166537813557                 23.2658       48
     750       70.86603065832034      -179.6086573148524      -19588.98143979347      0.1183750629425049      -19715.92842235855      -22041.06174586774      -17009.95415115413       1971.388081503417       -2321.22861531621       3045.525060962233      0.4305272097280399      -179.1781301051244       1875.864792975853       9.648870000000001       8.356166537813557                 23.2658       48
     760       79.56470772023513      -179.6702390794195      -15926.39710367735      0.1197841167449951      -16396.89698316703      -21287.06197236384      -10095.23235550118       1769.994452891071      -3702.408672634139       2656.656415630658        0.48337364586961      -179.1868654335499       1875.864792975853       9.648870000000001       8.356166537813557                 23.2658       48
     770       83.31659997487658      -179.7033456209125        -13607.847898573      0.1211481094360352      -15844.84091290048      -19609.23070657674      -5369.472076241792       1913.746438555883      -3981.982229744149       1702.106864978258      0.5061672423019985      -179.1971783786105       1875.864792975853       9.648870000000001       8.356166537813557                 23.2658       48
     780       83.39196960947056      -179.7150355850721      -14755.79635620513      0.1225671768188477      -17305.28917793742      -18768.77003060558      -8193.329860072388       1281.280878089868      -2646.294216227583       827.5452580409994      0.5066251299271207       -179.208410455145       1875.864792975853       9.648870000000001       8.356166537813557                 23.2658       48
     790       96.94362057693081      -179.8111322616618      -17728.02769439255      0.1239650249481201      -17416.68187591048      -20832.43008394419      -14934.97112332297       199.2351924176952       257.8454832093811      -163.3569477150192      0.5889544832721558      -179.2221777783897       1875.864792975853       9.648870000000001       8.356166537813557                 23.2658       48
     800        111.969351604692       -179.922565673596       -19697.7240163823      0.1253261566162109      -16043.80385101226       -21523.9829266648      -21525.38527146984      -1271.030630707288       2549.294764097468      -1195.523692622645      0.6802392073269883       -179.242326466269       1875.864792975853       9.648870000000001       8.356166537813557                 23.2658       48
     810       111.9428186294541      -179.9503165465419      -19058.58959384525      0.1267001628875732      -17160.72609441655      -20188.26170980183      -19826.78097731735      -1285.173116423405       4135.213847603746      -2891.243055719438      0.6800780134843413      -179.2702385330576       1875.864792975853       9.648870000000001       8.356166537813557                 23.2658       48
     820       95.42428132138886      -179.8810190300835      -17661.14893112146      0.1280210018157959      -17698.29400568558      -23211.54358155358      -12073.60920612522      -105.4147401889879       3339.902030082039      -3120.168149155464      0.5797241526858052      -179.3012948773977       1875.864792975853       9.648870000000001       8.356166537813557                 23.2658       48
     830       78.74257620600868      -179.8067292750915      -16031.54780324086      0.1294341087341309      -17180.97908559939      -24048.54107239904      -6865.123251724144       862.1559579991701       1519.593958952312      -3262.936950756903      0.4783790104489249      -179.3283502646426       1875.864792975853       9.648870000000001       8.356166537813557                 23.2658       48
     840       76.24826368443786      -179.8145499054668      -14402.06030318465      0.1308300495147705      -15695.97777960364      -21900.45716909324      -5609.745960857079       1278.535681195568      -415.5127624645829      -3732.568691948646      0.4632254961328876      -179.3513244093339       1875.864792975853       9.648870000000001       8.356166537813557                 23.2658       48
     850       78.32698149865544      -179.8501142027453      -16685.78416101209       0.132216215133667      -16584.71159711283      -21529.36363441322      -11943.27725151021       594.8619299459677       -1801.91682094385       -3389.43069334779      0.4758541783386405      -179.3742600244066       1875.864792975853       9.648870000000001       8.356166537813557                 23.2658       48
     860       54.47780578949593       -179.723092876745      -21581.77370217266      0.1337261199951172      -19579.78364229358      -24854.96313605867      -20310.57432816572       330.3519750210527      -2335.981798057526      -2059.788496071335      0.3309650265547079      -179.3921278501903       1875.864792975853       9.648870000000001       8.356166537813557                 23.2658       48
     870       52.89289595066388       -179.725146974347      -22540.37979044181      0.1351180076599121      -19869.75500779672      -26044.94938563307      -21706.43497789565      -1385.598437981924       -1866.75744603391      -1282.037396604112      0.3213363398024781      -179.4038106345445       1875.864792975853       9.648870000000001       8.356166537813557                 23.2658       48
     880       72.24254397963837      -179.8546154123939      -18907.19038394123      0.1365351676940918      -17305.14879883593      -23891.19747255198      -15525.22488043576      -2466.367542581851      -864.7961910912146      -1021.019143093618      0.4388898403689159      -179.4157255720249       1875.864792975853       9.648870000000001       8.356166537813557                 23.2658       48
     890       77.21348147943988      -179.8987328548085      -14590.25826196327      0.1380281448364258      -15803.40126882526      -21829.12117878361      -6138.252338280942      -1731.132257131849       -149.658231546277      -1020.726421706704       0.469089413163399      -179.4296434416451       1875.864792975853       9.648870000000001       8.356166537813557                 23.2658       48
     900       69.50589903779765      -179.8656135841154      -13875.78052932484      0.1394331455230713      -17647.10748909448      -21004.99071813506      -2975.243380744993      -376.6027102978532       273.6844323546575      -1236.510550324722       0.422264101635111      -179.4433494824802       1875.864792975853       9.648870000000001       8.356166537813557                 23.2658       48
     910        72.6508262385193      -179.8975321047194      -15536.01181934597      0.1408011913299561      -18852.83675314755      -20930.36379225245      -6824.834912637913       668.7447704500636       680.4041632684171       -671.085503288086      0.4413702476961581      -179.4561618570232       1875.864792975853       9.648870000000001       8.356166537813557                 23.2658       48
     920       80.68548530688943      -179.9608173727653      -17870.04055227759       0.142301082611084      -18399.14005032588      -20078.78567720037      -15132.19592930654       1716.236837366804       538.7134507073146       116.3222521991791      0.4901826239177032      -179.4706347488476       1875.864792975853       9.648870000000001       8.356166537813557                 23.2658       48
     930       66.82000711369221      -179.8912643247199      -18716.61427550353      0.1436641216278076      -18692.78564651121      -19189.14320080513      -18267.91397919425       2225.449533580506      -464.6147251474533       118.1903581272038      0.4059466989955937      -179.4853176257243       1875.864792975853       9.648870000000001       8.356166537813557                 23.2658       48
     940       49.82505014248557      -179.7984502988331      -18248.74558978579      0.1450061798095703      -18977.26043978012      -19569.89104479484      -16199.08528478242       1927.348682824709      -1608.733128975274      -576.4144306630178      0.3026984806843479      -179.4957518181488       1875.864792975853       9.648870000000001       8.356166537813557                 23.2658       48
     950       56.35858717521119      -179.8460294267424      -15264.25984148745      0.1464362144470215       -18288.6869562271      -18866.12271251768      -8637.969855717583        1156.35289526782      -1931.689954902193      -1430.693522684957      0.3423912000623581        -179.50363822668       1875.864792975853       9.648870000000001       8.356166537813557                 23.2658       48
     960       66.56032788181084      -179.9159481356722      -10130.77282473191      0.1478300094604492      -15893.68148797655      -17559.71517429813       3061.078188078958       309.8958054502601      -1448.907236056769      -1179.892354255262      0.4043690887627693      -179.5115790469094       1875.864792975853       9.648870000000001       8.356166537813557                 23.2658       48
     970       71.68546814425157      -179.9555560832238      -10839.95278621736      0.1493461132049561      -16538.94369292771      -18108.88551683783       2127.970851113466      -711.3846603244878      -1133.778863881982      -360.4810588410427      0.4355054783157855       -179.520050604908       1875.864792975853       9.648870000000001       8.356166537813557                 23.2658       48
     980       76.09812298419929      -179.9920003851932      -15640.79564167537      0.1509490013122559      -19050.07347377195      -20136.51276619699      -7735.800685057156      -744.5979903211427       33.23548649777607      -174.0006407045455      0.4623133573247754      -179.5296870278684       1875.864792975853       9.648870000000001       8.356166537813557                 23.2658       48
     990        68.8779019627231      -179.9585450438339      -20640.42945470575      0.1525490283966064      -20056.04891414983      -21264.62829301697      -20600.61115695045       164.8505635941672       1770.986152154992      -1376.955795327718      0.4184488769648765      -179.5400961668691       1875.864792975853       9.648870000000001       8.356166537813557                 23.2658       48
    1000       60.54316090363299      -179.9169803716599      -21800.93547296325      0.1540892124176025      -19537.13956724331       -21646.7241193036      -24218.94273234285       422.8372047054127       2596.614844956803      -2527.122364437203      0.3678134345866108      -179.5491669370733       1875.864792975853       9.648870000000001       8.356166537813557                 23.2658       48
    1010       65.98420444499672      -179.9585078825309      -21236.08922035417      0.1556482315063477      -18787.55707452894      -20986.02998518869      -23934.68060134485       466.2495645365534       894.9977724061906      -3128.130413310431      0.4008690082106863      -179.5576388743202       1875.864792975853       9.648870000000001       8.356166537813557                 23.2658       48
    1020       63.11645050567999      -179.9497896006363      -18043.65550230383      0.1572360992431641      -17468.75249017972      -20483.59715841469      -16178.61685831707       1319.334893738527      -903.0590151628028      -2369.688159721953      0.3834467525797274      -179.5663428480566       1875.864792975853       9.648870000000001       8.356166537813557                 23.2658       48
    1030       47.63523370458767      -179.8621472890468      -15665.38723347181      0.1588101387023926      -16509.88874041651      -21664.32409459415      -8821.948865404796       1531.941866532119      -1530.764761323593      -1344.641542769823      0.2893948491409028      -179.5727524399059       1875.864792975853       9.648870000000001       8.356166537813557                 23.2658       48
    1040       57.50433612220773      -179.9268029524374      -14640.15520972043       0.160398006439209      -16681.25786442164       -20968.2697153972      -6270.938049342431        2297.48586055748       -315.929749028341      -915.4082273045781      0.3493518847884095       -179.577451067649       1875.864792975853       9.648870000000001       8.356166537813557                 23.2658       48
    1050       73.37912810750858      -180.0286076373027      -14917.82379762162      0.1619770526885986       -16730.9790421192      -18784.53522089152      -9237.957129854125       1879.124353694878       1295.858525260491      -663.1804894473484      0.4457948467400563      -179.5828127905626       1875.864792975853       9.648870000000001       8.356166537813557                 23.2658       48
    1060       67.74993682828378      -180.0007065411613      -16694.74083836864      0.1635351181030273      -16158.60262198765      -18752.30163522699      -15173.31825789128       1050.820214298376       1317.300441520034      -794.3395548162342      0.4115962329337457      -179.5891103082276       1875.864792975853       9.648870000000001       8.356166537813557                 23.2658       48
    1070       59.54418284053735       -179.956761582858       -15144.9301928302      0.1650910377502441      -15965.38147471679      -17629.01591646465      -11840.39318730916       293.9545820040144       1015.891628058716       692.7435586890306      0.3617444162700953      -179.5950171665879       1875.864792975853       9.648870000000001       8.356166537813557                 23.2658       48
    1080       63.51062504828973      -179.9862760694447      -14570.11116932529      0.1667070388793945       -16856.1013632698      -18746.84989672111      -8107.382247984954      -980.1846237872568        696.093240922372       1556.627963348649      0.3858414523307804      -179.6004346171139       1875.864792975853       9.648870000000001       8.356166537813557                 23.2658       48
    1090       69.08949137453348       -180.026170778174      -14472.15543305522      0.1683530807495117      -17791.12574264315      -19039.18213010993       -6586.15842641257      -1242.165087737894       589.5725624974791       913.9810356625223       0.419734330633277      -179.6064364475408       1875.864792975853       9.648870000000001       8.356166537813557                 23.2658       48
    1100        60.1970168114739       -179.978487874944      -15144.19543187758      0.1699662208557129       -18621.6723721917       -19789.0798759655      -7021.834047475528      -766.4892345920325      -214.6973695846564       2111.998680142301      0.3657105307160721      -179.6127773442279       1875.864792975853       9.648870000000001       8.356166537813557                 23.2658       48
    1110       46.46139398472736      -179.8997115450144      -16681.90360948964      0.1713640689849854      -19328.69991675655      -20022.19426129144      -10694.81665042094       123.6841991929826      -1635.328843826707       3897.822210363048      0.2822635065982954      -179.6174480384161       1875.864792975853       9.648870000000001       8.356166537813557                 23.2658       48
    1120       44.65110139929531      -179.8914288094851      -18146.57033935907      0.1727161407470703      -18434.56090369583      -19745.64799239509       -16259.5021219863       984.2580492094773      -2124.918597666708       4945.416151122971      0.2712655685402829      -179.6201632409448       1875.864792975853       9.648870000000001       8.356166537813557                 23.2658       48
    1130       47.87104529759355      -179.9122340430681      -19172.52008294551      0.1741502285003662      -17879.17879505394       -19347.4462767242      -20290.93517705841       1202.008663257658      -1074.073164411132       4601.078940354413        0.29082745805402      -179.6214065850141       1875.864792975853       9.648870000000001       8.356166537813557                 23.2658       48
    1140       43.91726975695858      -179.8880128091223      -18433.20090242197      0.1755280494689941      -18364.64829319608      -21020.57395297398      -15914.38046109584       1104.090305922842       622.3388228997462       3595.972166413068      0.2668073748690633      -179.6212054342532       1875.864792975853       9.648870000000001       8.356166537813557                 23.2658       48
    1150       41.92107462978475      -179.8741768299544      -16776.93087439825      0.1769711971282959      -17710.66983643702      -21708.59297933548      -10911.52980742225        1276.27738689333       1627.266066405018       3357.660521870338      0.2546800367044845      -179.6194967932499       1875.864792975853       9.648870000000001       8.356166537813557                 23.2658       48
    1160       56.23592965451425      -179.9575213403653      -14944.55259388866      0.1784031391143799      -16739.08106937584      -20784.52977788774      -7310.046934402407       1357.685783291281       1895.138713965226       3297.569556216543      0.3416460278035587      -179.6158753125617       1875.864792975853       9.648870000000001       8.356166537813557                 23.2658       48
    1170       61.96871358994596      -179.9870136180922      -14819.73837217234      0.1798360347747803      -18401.97509632785      -19895.13023106231      -6162.109789126869       970.7108680567733       2189.824019198821       2804.613675401677      0.3764739904926946      -179.6105396275996       1875.864792975853       9.648870000000001       8.356166537813557                 23.2658       48
    1180       57.69856124035135      -179.9557521945241      -16128.87067769925      0.1812911033630371      -20369.44215794669      -20634.34670224785      -7382.823172903215       965.2018502526786       1476.489689168143        2651.26690108807      0.3505318464343022      -179.6052203480898       1875.864792975853       9.648870000000001       8.356166537813557                 23.2658       48
    1190       53.30758721278817      -179.9237510844106      -19651.37067628033      0.1827042102813721      -23185.04961201004      -21704.31809201486       -14064.7443248161       664.7658307454861       700.9553084491457       2191.478806855691      0.3238556832780818      -179.5998954011325       1875.864792975853       9.648870000000001       8.356166537813557                 23.2658       48
    1200       44.51102907880628      -179.8648046109465      -21798.41898148122      0.1840732097625732       -23439.3996519654      -22653.80835698479      -19302.04893549345      -574.0164550879235       245.6486404214687       2186.284215569095      0.2704145974228087      -179.5943900135237       1875.864792975853       9.648870000000001       8.356166537813557                 23.2658       48
    1210       56.56741888299664      -179.9314601813543      -20486.92248330152      0.1854619979858398      -20965.05604370384      -20821.37121082401       -19674.3401953767       -1168.34445739433       218.5823667540749       1783.755628273284      0.3436599000533185      -179.5878002813009       1875.864792975853       9.648870000000001       8.356166537813557                 23.2658       48
    1220       76.68299767496703      -180.0440926403977      -17066.19543129772      0.1868300437927246      -17446.92191955644      -18856.33306911583      -14895.33130522088      -632.5097211937502       772.4670768910059       950.3807884766011      0.4658666037295424      -179.5782260366682       1875.864792975853       9.648870000000001       8.356166537813557                 23.2658       48
    1230       74.27528865550595      -180.0209240509695      -13574.04589031934       0.188176155090332       -15551.0585650714      -17969.18116528734      -7201.897940599277       781.0696686827993       1910.217119841256       1146.326338433116      0.4512392253317951      -179.5696848256377       1875.864792975853       9.648870000000001       8.356166537813557                 23.2658       48
    1240       53.36009058287831      -179.8885473806303      -14293.84853235839      0.1895220279693604      -17118.14634876846      -20080.79383640508       -5682.60541190164          2582.702039225       1629.491857735257       448.7311986421114      0.3241746531599313      -179.5643727274704       1875.864792975853       9.648870000000001       8.356166537813557                 23.2658       48
    1250       47.17387554687952      -179.8466979606696      -15765.57110329851      0.1909110546112061      -18032.77543692761      -21652.54223840051      -7611.395634567397       2875.572641103944       1114.181354759159       -104.574059763759      0.2865919936898753      -179.5601059669797       1875.864792975853       9.648870000000001       8.356166537813557                 23.2658       48
    1260       63.03059152359481      -179.9372570617979       -17259.3227709687      0.1923391819000244      -17284.77773655924       -20887.1281568519      -13606.06241949496       1740.432441391019       1105.027484380162      -330.1527047961912      0.3829251397894549      -179.5543319220085       1875.864792975853       9.648870000000001       8.356166537813557                 23.2658       48
    1270       72.53104395264336       -179.988108224582      -18053.91699815985      0.1937441825866699       -17401.7438608872      -18603.55230239663      -18156.45483119572        749.004256151057       1444.841006754448        175.965295599919      0.4406425431410425       -179.547465681441       1875.864792975853       9.648870000000001       8.356166537813557                 23.2658       48
    1280        72.3132359302848      -179.9816844304316      -18164.14386272465      0.1951591968536377      -18105.34353601481      -19557.13040559061       -16829.9576465685       511.1587237660716       838.0088044493677       715.5134702001175      0.4393193100030877      -179.5423651204285       1875.864792975853       9.648870000000001       8.356166537813557                 23.2658       48
    1290       65.03091831168047      -179.9346323543537      -17220.30609288356      0.1965172290802002      -18871.14647760259      -20303.50531169266      -12486.26648935542       580.9798422881828      -393.4148360538301       1424.414820902295      0.3950775787311957      -179.5395547756225       1875.864792975853       9.648870000000001       8.356166537813557                 23.2658       48
    1300       58.07515180002274      -179.8908932325599       -16071.5819201677      0.1979610919952393      -18925.06204226274      -21380.49940747302      -7909.184310767348       1879.554387224772      -1560.312244522421        1328.70888681051      0.3528197195006937      -179.5380735130592       1875.864792975853       9.648870000000001       8.356166537813557                 23.2658       48
    1310       67.31901109119435       -179.946075812767      -14917.75916878574      0.1993470191955566      -17535.15490767051      -20312.73491845492      -6905.387680231799       2597.492230972337       -1847.58506697996       911.7295758915665      0.4089782613405064      -179.5370975514265       1875.864792975853       9.648870000000001       8.356166537813557                 23.2658       48
    1320       83.36041568170926      -180.0443577290497      -13991.99433216115      0.2006890773773193      -16737.50823742403      -18480.54560161675      -6757.929157442674       2000.575984614363      -1474.944662974203      -168.9965715624669      0.5064334326590666      -179.5379242963907       1875.864792975853       9.648870000000001       8.356166537813557                 23.2658       48
    1330       78.70489891331225      -180.0212081448662      -14959.84610027731      0.2020831108093262      -17076.39775498487      -19538.70855651773       -8264.43198932935       1436.605012001856      -991.3850441361769      -474.0521557732023       0.478150112350019      -179.5430580325162       1875.864792975853       9.648870000000001       8.356166537813557                 23.2658       48
    1340        61.8980521273137      -179.9269363424829      -17042.53259695596      0.2034311294555664      -17460.46707957918      -22434.83209692405      -11232.29861436464       1407.624191620746       89.44132114641548      -386.7220284147172       0.376044706080124      -179.5508916364028       1875.864792975853       9.648870000000001       8.356166537813557                 23.2658       48
    1350       50.21451990813708      -179.8630108563362        -18876.453440566      0.2047982215881348      -18073.09812866062      -24857.15977537603      -13699.10241766134       791.3495806624422       1677.136036353336      -959.7774647213059      0.3050645978482657       -179.557946258488       1875.864792975853       9.648870000000001       8.356166537813557                 23.2658       48
    1360       50.52879180700241       -179.870861210266      -19742.16773975964      0.2061772346496582      -19119.49193918052       -25610.6646241723      -14496.34665592611       13.93486531760484       2260.103895682628      -1958.656885629925      0.3069738709154533      -179.5638873393506       1875.864792975853       9.648870000000001       8.356166537813557                 23.2658       48
    1370       55.74573616773136      -179.9086686976191      -18568.44546788418      0.2075560092926025      -19791.23323741851      -24651.64231833751      -11262.46084789652      -772.0625377429106       881.6126078342493      -2266.140359914217      0.3386679911881169       -179.570000706431       1875.864792975853       9.648870000000001       8.356166537813557                 23.2658       48
    1380       55.87138545985761      -179.9156652391116      -18383.32230871465      0.2089731693267822      -19291.77625288011      -23801.17527785034      -12057.01539541348       -821.245666931003      -418.4525333637423      -1967.159800102463      0.3394313391369281      -179.5762338999747       1875.864792975853       9.648870000000001       8.356166537813557                 23.2658       48
    1390       60.38534352782673       -179.949845584431       -19754.1014623425      0.2104570865631104      -18667.05703014715      -24387.36049543068      -16207.88686144968      -334.4676599130467      -1462.893112137371      -1676.786099317042      0.3668546582332396      -179.5829909261978       1875.864792975853       9.648870000000001       8.356166537813557                 23.2658       48
    1400       70.51356781605722      -180.0202706044535       -20348.8917996603      0.2126681804656982      -18013.30036273238      -23687.20881739197      -19346.16621885654      -541.4578623586719      -1327.963783057447      -1310.500136045369      0.4283859180174318      -179.5918846864361       1875.864792975853       9.648870000000001       8.356166537813557                 23.2658       48
    1410       60.31189022649109      -179.9693980317265      -17695.11295149707       0.214224100112915      -17469.28701377961      -21442.36104323984      -14173.69079747177       -1544.52935673899       42.12038784358931      -1617.246842937597      0.3664084127673151      -179.6029896189591       1875.864792975853       9.648870000000001       8.356166537813557                 23.2658       48
    1420       46.37227832122696      -179.8938000608713      -13362.18631918945      0.2156550884246826      -16396.42317671155      -18253.31824126337      -5436.817539593438      -1793.005553479389       629.8550297098543      -1592.730283623926      0.2817221087297612      -179.6120779521416       1875.864792975853       9.648870000000001       8.356166537813557                 23.2658       48
    1430       55.27637226022411      -179.9561399458346      -9907.301043194233      0.2170970439910889      -14783.10837070091      -14891.38184050779      -47.41291837400368      -558.3713734514686       845.7428565193906      -1947.353121805732      0.3358164989912357      -179.6203234468433       1875.864792975853       9.648870000000001       8.356166537813557                 23.2658       48
    1440       63.46298154235386      -180.0159722033043       -11853.7462210628      0.2185811996459961      -14534.51401429609      -16256.93531631406      -4769.789332578264       157.6516860626942       855.5047053665041      -2807.542644254579      0.3855520072259582      -179.6304201960783       1875.864792975853       9.648870000000001       8.356166537813557                 23.2658       48
    1450        53.4778574058189      -179.9659169057189      -15347.14014738137      0.2206771373748779      -14954.73270431622      -19672.84705534936      -11413.84068247854        950.329402893489        323.798656659108      -4131.374725811575      0.3248901133205773      -179.6410267923983       1875.864792975853       9.648870000000001       8.356166537813557                 23.2658       48
    1460        45.6000107764086      -179.9267198303959      -18378.17164885121      0.2225291728973389      -15310.83504405171      -22803.08359082854      -17020.59631167338       1950.475881127371       40.97720604897737      -3643.035899427531      0.2770304082331265      -179.6496894221628       1875.864792975853       9.648870000000001       8.356166537813557                 23.2658       48
    1470        47.6939486982816      -179.9466794875829      -20605.20367434902      0.2239382266998291      -16848.99505987146      -24487.57833099616      -20479.03763217944       2149.862652907345      -190.1598158456736      -2788.244730879451      0.2897515560450347      -179.6569279315378       1875.864792975853       9.648870000000001       8.356166537813557                 23.2658       48
    1480       57.25460214002178      -180.0123356517725      -21234.92347437397       0.225351095199585      -17937.52234495484      -24835.39305961111      -20931.85501855596       1353.765067710161      -946.9910877440924      -1023.205936605394      0.3478346942032167      -179.6645009575693       1875.864792975853       9.648870000000001       8.356166537813557                 23.2658       48
    1490        64.2967647613155      -180.0645772677307      -20098.39103058538      0.2267510890960693       -18152.8123492464      -25379.86066804216      -16762.50007446758       800.7856688117615      -2298.221749648978       921.2855596984407       0.390617429395691       -179.673959838335       1875.864792975853       9.648870000000001       8.356166537813557                 23.2658       48
    1500       57.62508026333781      -180.0351988045385      -16078.18825236986      0.2281460762023926       -17485.0220237516      -23989.01357308757       -6760.52916027041      -287.8362696135848      -3292.112353323229       1423.634275698471      0.3500854328323572      -179.6851133717061       1875.864792975853       9.648870000000001       8.356166537813557                 23.2658       48
    1510       35.88432354021506       -179.911642696021       -13032.3345099746      0.2296991348266602       -18235.3716190634      -23187.14145035791       2325.509539497506      -1235.475537331388      -3520.469111790471       456.3522623207121      0.2180054046096503      -179.6936372914114       1875.864792975853       9.648870000000001       8.356166537813557                 23.2658       48
    1520       33.33070501989601      -179.9007314278122      -14066.16856966379      0.2311601638793945      -18713.22256547167      -23119.69089386341       -365.592249656302      -2007.698242571583      -2559.122426970405      -218.4467688144088      0.2024915928997273      -179.6982398349125       1875.864792975853       9.648870000000001       8.356166537813557                 23.2658       48
    1530       51.39727940845545      -180.0150803373642      -17276.53462199409      0.2326321601867676      -18171.43693867063      -22003.55774685299      -11654.60918045864      -1853.623997037688      -1278.319675650896      -35.21222438972592      0.3122501300802959      -179.7028302072839       1875.864792975853       9.648870000000001       8.356166537813557                 23.2658       48
    1540       52.44025679421075      -180.0267058596317       -19833.2686705155        0.23409104347229      -18950.16879587248      -20279.98330354611      -20269.65391212791      -119.6384238623731      -602.8003105294836       888.0254992598231      0.3185864542616751        -179.70811940537       1875.864792975853       9.648870000000001       8.356166537813557                 23.2658       48
    1550       46.88754659971207      -179.9980591735542      -18235.82830530238      0.2354381084442139      -17776.33780445201      -17991.33677481665      -18939.81033663847       1099.543441362189      -542.5474607966818       491.6385449700013      0.2848524803921328       -179.713206693162       1875.864792975853       9.648870000000001       8.356166537813557                 23.2658       48
    1560       47.37333272968836      -180.0058211894218      -15806.52122892446      0.2368021011352539      -14866.87155882511      -17431.21089810162      -15121.48122984666       1803.305286879678      -286.7826503757864      -898.7727014032019      0.2878037413153199      -179.7180174481065       1875.864792975853       9.648870000000001       8.356166537813557                 23.2658       48
    1570       44.40325541756307      -179.9922151906158       -12905.9415768594      0.2381792068481445      -12972.64826806484      -17208.88465170422      -8536.291810809153       1378.642369633074       946.9349740595494      -2214.026354189603      0.2697598479860732      -179.7224553426298       1875.864792975853       9.648870000000001       8.356166537813557                 23.2658       48
    1580       42.95656738834948      -179.9872470211985      -11307.97130899971      0.2395691871643066      -13719.87604566744      -17041.61321174454      -3162.424669587158       545.9096943327258       1556.756611442322      -1996.428213073507      0.2609708900780553      -179.7262761311205       1875.864792975853       9.648870000000001       8.356166537813557                 23.2658       48
    1590       48.28823824171265      -180.0231609043144      -13023.01976980324       0.240962028503418       -14687.8684178038      -18283.50847437225      -6097.682417233662       -365.959382306112       1518.837836223315       -701.302520599431      0.2933619998151611      -179.7297989044993       1875.864792975853       9.648870000000001       8.356166537813557                 23.2658       48
    1600       52.71705097559013      -180.0542557751652      -17402.29695292978      0.2424201965332031      -16425.11576790788       -21715.8737580327      -14065.90133284878      -1503.865391468282       312.8264134529576       949.9718890208522      0.3202680416946271      -179.7339877334706       1875.864792975853       9.648870000000001       8.356166537813557                 23.2658       48
    1610       47.90403495198773      -180.0297039043014      -19507.90642673761      0.2437770366668701      -17170.48231540589      -23662.51192483192      -17690.72503997502      -1862.616681626455      -1210.824703370808       2018.211094298793       0.291027877687013      -179.7386760266144       1875.864792975853       9.648870000000001       8.356166537813557                 23.2658       48
    1620       45.42540912082217      -180.0192428470654      -19804.14010060624       0.245110034942627      -17202.47054344679      -23127.84274787431      -19082.10701049762      -1590.295749208478      -2640.619273232897       1509.289854707402      0.2759696635731644      -179.7432731834922       1875.864792975853       9.648870000000001       8.356166537813557                 23.2658       48
    1630       45.86506767634729      -180.0265274294195      -18791.63560523605      0.2465331554412842      -17921.81198524588      -22457.56169616176      -15995.53313430052      -748.0700859169583      -2942.488984084316       205.6311595147864      0.2786406890191348      -179.7478867404004       1875.864792975853       9.648870000000001       8.356166537813557                 23.2658       48
    1640        41.5938916463307      -180.0048400931774      -17991.40129451182      0.2478690147399902      -18199.00557719813      -22589.27230852999      -13185.92599780735       369.7751452963348      -1900.430870383221       -914.256951070939      0.2526923258699928      -179.7521477673075       1875.864792975853       9.648870000000001       8.356166537813557                 23.2658       48
    1650       39.73188541039931      -179.9970959033457      -17128.57164763157      0.2492771148681641      -18321.42537930284       -21918.8482875822      -11145.44127600968        1404.85177260469      -532.3389845843601      -975.6774802896917      0.2413802156557652      -179.7557156876899       1875.864792975853       9.648870000000001       8.356166537813557                 23.2658       48
    1660       41.70174995625314      -180.0121321145984      -16105.64946442529      0.2509081363677979       -17356.1716107659      -20026.56105294354      -10934.21572956643       2086.119928479089       9.366822638642223      -587.5232093096829      0.2533475895666542      -179.7587845250317       1875.864792975853       9.648870000000001       8.356166537813557                 23.2658       48
    1670       49.60723254740982       -180.063358005544      -14107.93980885443      0.2522752285003662      -15089.16192894286      -17499.94243645836      -9734.715061162073       1971.828480776447      -799.5338140318551      -999.5344480255977      0.3013751893899649       -179.761982816154       1875.864792975853       9.648870000000001       8.356166537813557                 23.2658       48
    1680       49.35302286864405       -180.066044551045      -13366.90596833777      0.2536790370941162      -13635.53757896095      -15936.58765676245       -10528.5926692899        1604.05550713019      -1798.387174416681      -780.2350280294659      0.2998308079328946      -179.7662137431121       1875.864792975853       9.648870000000001       8.356166537813557                 23.2658       48
    1690       37.55156632384355       -179.998516145788      -14586.87117212627      0.2550070285797119      -14105.45722727345      -16311.95380583481      -13343.20248327056       1730.799129112707      -2113.003819804916      -908.7796051354901      0.2281342826758653      -179.7703818631121       1875.864792975853       9.648870000000001       8.356166537813557                 23.2658       48
    1700       32.31603595789976      -179.9695023801648      -14890.95954239774      0.2564949989318848      -14420.72372541855      -16671.74688112822      -13580.40802064643       1393.027795405577      -1515.505464336616      -472.9131491684254      0.1963272482059369      -179.7731751319589       1875.864792975853       9.648870000000001       8.356166537813557                 23.2658       48
    1710       37.00971251486238      -179.9999441973069      -14937.93773332518      0.2578861713409424      -13875.89400436859      -17811.09404808203      -13126.82514752491       1026.123741008214      -773.3855996428329       696.6164779508525       0.224842397885733      -179.7751017994211       1875.864792975853       9.648870000000001       8.356166537813557                 23.2658       48
    1720       40.33893320963171       -180.021635291317      -14419.85883505924      0.2592082023620605      -13985.29368711351      -17606.02574945324      -11668.25706861096       837.9544758570515       -289.440278339155        2056.97202438945      0.2450681687236486      -179.7765671225933       1875.864792975853       9.648870000000001       8.356166537813557                 23.2658       48
    1730       41.41672345119984      -180.0294907827349      -13758.11006459611      0.2605431079864502      -14468.10357885182      -17836.74647981677      -8969.480135119731        826.444837755632      -717.7936122181006       2727.781997152279      0.2516159889001686      -179.7778747938347       1875.864792975853       9.648870000000001       8.356166537813557                 23.2658       48
    1740       39.11005519498073      -180.0166600107589      -14317.79707139682      0.2618491649627686      -15615.13396226073      -18761.02075765788      -8577.236494271838       603.7765775307438      -1496.564226751067       2318.298482792639       0.237602456056677      -179.7790575547022       1875.864792975853       9.648870000000001       8.356166537813557                 23.2658       48
    1750       36.97414779506239      -180.0045034405351       -16110.1212434465       0.263160228729248      -16354.52572860853      -20289.37060417439      -11686.46739755659       1069.176362489139      -1744.117493460222       1903.925529048121      0.2246263341463362      -179.7798771063888       1875.864792975853       9.648870000000001       8.356166537813557                 23.2658       48
    1760       39.85143031823311      -180.0224385572999      -17492.19454051423      0.2644650936126709      -15848.37440286757      -21380.92903545936      -15247.28018321574       1181.822754296848      -932.3481620983285       1795.919824868654      0.2421064780854338      -179.7803320792144       1875.864792975853       9.648870000000001       8.356166537813557                 23.2658       48
    1770       37.47204322658374      -180.0081605815635      -19432.75815381242       0.265775203704834      -16955.45370387399      -22916.96168501685      -18425.85907254642       211.8043727901501       628.0462150775287       1698.940868529433      0.2276511618229806      -179.7805094197405       1875.864792975853       9.648870000000001       8.356166537813557                 23.2658       48
    1780       32.52607736169861       -179.977909422372      -18326.95494879566      0.2670931816101074      -17521.58651823032      -22929.64088950518      -14529.63743865149      -442.0145569821752       1090.280846725558       504.4437369328759      0.1976032973745559      -179.7803061249975       1875.864792975853       9.648870000000001       8.356166537813557                 23.2658       48
    1790       34.69440330000744      -179.9900789127935      -15722.24893116171      0.2684500217437744      -17122.43337077395      -21385.12236859626      -8659.191054114906      -1228.298667856673       154.8076308763745      -473.4772557835855      0.2107763692586297      -179.7793025435348       1875.864792975853       9.648870000000001       8.356166537813557                 23.2658       48
    1800        43.3910924792007      -180.0410832389005      -12354.74260672861      0.2698290348052979      -15798.71152277973      -18214.95372796527      -3050.562569440829       -1519.61396612786      -1272.284377372843       422.3801927522666      0.2636107285617849      -179.7774725103387       1875.864792975853       9.648870000000001       8.356166537813557                 23.2658       48
    1810       45.50022361564606      -180.0518555837627      -11556.44018703228      0.2711861133575439      -14893.81610435143      -16825.56235194362      -2949.942104801806      -1178.757496370853      -1426.367268930883       1524.775095868253      0.2764241785982692      -179.7754314051645       1875.864792975853       9.648870000000001       8.356166537813557                 23.2658       48
    1820       51.40982631236747      -180.0865300479724      -13411.73165037446      0.2725260257720947      -15541.06289270183      -17818.44346456023      -6875.688593861304      -631.1084140568977      -124.3092653914305       1938.175780192651      0.3123263553673875       -179.774203692605       1875.864792975853       9.648870000000001       8.356166537813557                 23.2658       48
    1830       53.46764584490733      -180.0994875960307      -16628.34489317599       0.273888111114502      -15983.85358751874      -18677.41864482988      -15223.76244717937      -80.43173382111237       934.0624687945306       2046.184857314277      0.3248280757719044      -179.7746595202588       1875.864792975853       9.648870000000001       8.356166537813557                 23.2658       48
    1840       44.82489372226404      -180.0494851587004      -19535.25951898832      0.2757220268249512      -15834.16174413129      -19380.15809161723      -23391.45872121644       771.8384670099047       1568.685756849782       385.6942880845937      0.2723213963210237      -179.7771637623794       1875.864792975853       9.648870000000001       8.356166537813557                 23.2658       48
    1850        40.6168689152863      -180.0272478280464      -20168.70001090182      0.2770562171936035      -16996.52779943936      -19295.25059231287      -24214.32164095324       1366.948296901532       1911.548694691729      -21.50553019685543      0.2467566911754873      -179.7804911368709       1875.864792975853       9.648870000000001       8.356166537813557                 23.2658       48
    1860       47.34879216412243      -180.0726049965756      -18745.37296956252      0.2784290313720703      -16853.47760130583      -18562.81615367732      -20819.82515370441       1671.310798720298        1222.29629319794       148.6021989237334      0.2876546518133385      -179.7849503447623       1875.864792975853       9.648870000000001       8.356166537813557                 23.2658       48
    1870       44.81592379993907      -180.0639241856181      -14095.01624497475      0.2797930240631104      -15158.48593755121       -18360.2287338079      -8766.334063565149       1995.446159912302      -516.6532798918084       1241.864446071135      0.2722669020083865      -179.7916572836097       1875.864792975853       9.648870000000001       8.356166537813557                 23.2658       48
    1880       31.82669415124736       -179.991340928115       -11780.6919833474      0.2812051773071289       -14664.6115596412      -18883.69731109913       -1793.76707930188       1677.220641771427      -1305.106891188088       2673.612589136486      0.1933543857404616      -179.7979865423745       1875.864792975853       9.648870000000001       8.356166537813557                 23.2658       48
    1890       34.90050976880323       -180.015597949008      -14180.94987416949       0.282609224319458       -17087.1638503883      -19868.81503324533      -5586.870738874827       1377.171109956736       73.58254721441033       2627.637389073958      0.2120285128046029      -179.8035694362034       1875.864792975853       9.648870000000001       8.356166537813557                 23.2658       48
    1900       38.06158645136329      -180.0414110004965      -18838.72708955094      0.2840352058410645      -19468.25264541141      -21893.11870575415      -15154.80991748726       1321.025661527792       1257.897708842882       2013.015298850042       0.231232770630763      -179.8101782298658       1875.864792975853       9.648870000000001       8.356166537813557                 23.2658       48
    1910       30.73797891684932      -180.0029764597135      -22094.01026143487      0.2854461669921875      -21635.94233807277      -22733.97420459307      -21912.11424163877       1513.005900495341       1727.587677690826       1050.928426242202      0.1867401937545477      -179.8162362659589       1875.864792975853       9.648870000000001       8.356166537813557                 23.2658       48
    1920       35.10958325795577      -180.0347612947249      -20777.53493532922      0.2868070602416992      -21020.85177664773      -21044.37411379932      -20267.37891554062       1013.661031446098       1766.569893940649       930.9057800803283      0.2132986816722079      -179.8214626130527       1875.864792975853       9.648870000000001       8.356166537813557                 23.2658       48
[...]
    2550       26.57317789045355      -180.1853895640843      -13959.27468338186      0.3758950233459473      -13752.86166324089      -20526.18685451718      -7598.775532387497       130.7145421241887      -599.9311475300835      -107.5547672622515      0.1614380828798485      -180.0239514812045       1875.864792975853       9.648870000000001       8.356166537813557                 23.2658       48
    2560       23.31183700521514      -180.1703795951148       -12293.0311249514       0.377310037612915       -13149.2011932409       -18298.3877612341      -5431.504420379208       399.8833016634509      -1874.732625322759      -838.5946928369053      0.1416246972809923      -180.0287548978338       1875.864792975853       9.648870000000001       8.356166537813557                 23.2658       48
    2570       19.24123775807105      -180.1503258330153       -12869.8870252649      0.3787441253662109      -13459.31948932324       -16808.9104180061      -8341.431168465382       755.9149080034655      -1770.349878319039      -1307.081423843864      0.1168948835816237      -180.0334309494337       1875.864792975853       9.648870000000001       8.356166537813557                 23.2658       48
    2580       17.14831325473133      -180.1416674852384      -15132.78706334965      0.3801391124725342       -14063.9491843179      -16614.87099247873      -14719.54101325233       961.3691853681739      -644.2480501375688       -1032.23214070997      0.1041798925171637      -180.0374875927212       1875.864792975853       9.648870000000001       8.356166537813557                 23.2658       48
    2590       14.30087905648092      -180.1275330618842      -17243.99737357021      0.3815510272979736      -14043.58337355999      -17246.15314023208      -20442.25560691857        435.165836158504       804.1628819905136       3.181751500208926     0.08688108392200482      -180.0406519779622       1875.864792975853       9.648870000000001       8.356166537813557                 23.2658       48
    2600       17.07477176669988      -180.1471105362276      -16528.59159597167      0.3829421997070312      -14042.37925652836      -17875.14161505279      -17668.25391633386       234.5974696793305        1145.28603285356       825.0879167963835        0.10373311129706      -180.0433774249306       1875.864792975853       9.648870000000001       8.356166537813557                 23.2658       48
    2610        19.9052783870425      -180.1677972551705       -14087.9609493746       0.384331226348877      -14052.38376023641       -18383.2491925982      -9828.249895289184       41.31716120303228       173.3244240073988       1392.590394464847      0.1209290810170006      -180.0468681741535       1875.864792975853       9.648870000000001       8.356166537813557                 23.2658       48
    2620       15.16310641185008      -180.1426589592729      -12469.30307172033      0.3857772350311279      -14270.14493534103       -19068.3484389711      -4069.415840848847      -480.0125866747487      -1753.886841000678       1051.517476382098     0.09211931067197002      -180.0505396486009       1875.864792975853       9.648870000000001       8.356166537813557                 23.2658       48
    2630       13.62596751115544      -180.1360228763522      -13176.27062970961      0.3871541023254395      -14822.44839477673      -19399.43205984953      -5306.931434502567      -1006.852311183677      -2503.523334793177       289.1495176713139     0.08278084320409032      -180.0532420331481       1875.864792975853       9.648870000000001       8.356166537813557                 23.2658       48
    2640       19.12704813251311      -180.1727118051477      -15381.64638441792      0.3885881900787354      -15457.94375924559      -19944.44425411487       -10742.5511398933      -1047.356009732161      -1398.328027909654       -114.609291172415      0.1162011557064394      -180.0565106494412       1875.864792975853       9.648870000000001       8.356166537813557                 23.2658       48
    2650       17.79690268447743       -180.168995011803      -17153.88946395707      0.3899970054626465      -15685.41981415429      -19981.04379984342      -15795.20477787349      -611.9751899432021      -5.214782656625319       888.8330535144298      0.1081202204126828      -180.0608747913903       1875.864792975853       9.648870000000001       8.356166537813557                 23.2658       48
    2660       16.39460678568916      -180.1647806201107      -17205.42019997432      0.3913471698760986       -15175.9159504972      -20241.23932499938      -16199.10532442639       167.6579278566984       212.1326170683474       1072.477569317247     0.09960095476579976      -180.0651796653449       1875.864792975853       9.648870000000001       8.356166537813557                 23.2658       48
    2670       17.09472263293963      -180.1738694533149      -15601.56576249031      0.3927080631256104      -14257.53985564105      -20035.49997645909      -12511.65745537078       771.3633139713272      -246.7495962330154       695.4768803641815      0.1038543173346222      -180.0700151359803       1875.864792975853       9.648870000000001       8.356166537813557                 23.2658       48
    2680       9.783298483352878      -180.1333397013488      -13774.22384385519      0.3940470218658447      -13693.32536733758      -18918.14326056023      -8711.202903667752        882.460848483582        -1187.4791691056        361.170484913783     0.05943575728521424      -180.0739039440636       1875.864792975853       9.648870000000001       8.356166537813557                 23.2658       48
    2690       8.651502957166773      -180.1283684177387      -13484.22667921961      0.3953762054443359       -13589.7100172719      -17398.23298660581      -9464.737033781134       646.2337946127772      -1533.043421353098       347.2880621174781     0.05255984275543138      -180.0758085749833       1875.864792975853       9.648870000000001       8.356166537813557                 23.2658       48
    2700       15.13763853364361      -180.1701605047654      -15181.75133754164      0.3967301845550537      -14091.99394440159      -16841.24985961793       -14612.0102086054       432.5710011627327      -1175.698452140079       666.0545155280864     0.09196458753536894        -180.07819591723       1875.864792975853       9.648870000000001       8.356166537813557                 23.2658       48
    2710       13.72897522047615      -180.1647840237691      -17315.94951629694      0.3980720043182373      -14639.94046858155      -18130.12911972263      -19177.77896058664       501.3980002749632      -521.7728875183186       1193.127185425892     0.08340663840190726      -180.0813773853672       1875.864792975853       9.648870000000001       8.356166537813557                 23.2658       48
    2720       13.61388884963176      -180.1671402198672       -16728.7533561779      0.3994181156158447      -14407.62635514154      -18615.98678573957      -17162.64692765258       224.9902381347401       28.91472355300636       1199.903373905734     0.08270746259571239      -180.0844327572715       1875.864792975853       9.648870000000001       8.356166537813557                 23.2658       48
    2730       16.96327420386979      -180.1917902770375      -14108.12486043392      0.4007840156555176      -13734.27091934886      -18159.14316805663      -10430.96049389626      -218.9354677846604      -369.6434469638995       257.6795347029856      0.1030557383135475      -180.0887345387239       1875.864792975853       9.648870000000001       8.356166537813557                 23.2658       48
    2740       12.15732125101253      -180.1673021844406       -12267.3187073672      0.4021420478820801      -13543.88339801403      -17629.08217719062      -5628.990546896938      -356.1801068897887      -1195.965057346089      -359.9138443272327     0.07385848406272065      -180.0934437003778       1875.864792975853       9.648870000000001       8.356166537813557                 23.2658       48
    2750       9.847197132421133      -180.1565722800078      -12258.39578625035      0.4035000801086426      -13431.33581573011      -17358.56277801418      -5985.288765006773      -354.9759369829844      -801.7027922472477      -567.0564700255753     0.05982395607147598      -180.0967483239363       1875.864792975853       9.648870000000001       8.356166537813557                 23.2658       48
    2760        11.6954671483078      -180.1709947786155      -13852.00359464397      0.4048411846160889      -13439.29444816292      -17291.28874354108       -10825.4275922279       -320.707259444337       811.9301940043334       -507.197807030986     0.07105261563335113      -180.0999421629821       1875.864792975853       9.648870000000001       8.356166537813557                 23.2658       48
    2770       10.27657995576135      -180.1655837204086       -15941.7695832996      0.4061541557312012      -13777.39270225082      -17575.35262496886      -16472.56342267913      -132.2002691184815       2309.045470279738      -394.8339541123054     0.06243255411373289      -180.1031511662949       1875.864792975853       9.648870000000001       8.356166537813557                 23.2658       48
    2780       10.92034007386353      -180.1723688527711       -16619.3235370015      0.4074761867523193      -14020.07241700588      -18339.23414096714      -17498.66405303149       229.5234143083578       2600.831872239478      -388.3880368758701     0.06634354284565482      -180.1060253099254       1875.864792975853       9.648870000000001       8.356166537813557                 23.2658       48
    2790       13.45513877809347      -180.1915131197919      -16283.27826881087       0.408804178237915      -14136.15030206035      -19280.96744222367      -15432.71706214858       515.7468458723193       1549.186735421675      -808.8957460526379     0.08174301990421978      -180.1097700998876       1875.864792975853       9.648870000000001       8.356166537813557                 23.2658       48
    2800       11.59572662016773      -180.1846390343277      -14948.65862129607      0.4102342128753662       -13872.0157605762      -19402.93920292389      -11571.02090038814       488.9191782874386       570.5073315633146      -958.9294985719621     0.07044666930225234      -180.1141923650254       1875.864792975853       9.648870000000001       8.356166537813557                 23.2658       48
    2810       10.23181848607667      -180.1802882666703      -13901.78166569861           0.41162109375      -13611.85832903636      -19284.80807331362      -8808.678594745854       285.9308627976311      -92.66315304139978      -665.2538735568476     0.06216061803282572      -180.1181276486375       1875.864792975853       9.648870000000001       8.356166537813557                 23.2658       48
    2820       10.50954217402956      -180.1859052900989      -14469.47644359369      0.4130270481109619      -13747.62452436377      -19673.98929141647      -9986.815515000835       111.9606634688336       -55.0006949468368      -268.3071453378025     0.06384785242903779      -180.1220574376699       1875.864792975853       9.648870000000001       8.356166537813557                 23.2658       48
    2830       8.445999873146494      -180.1769304673411      -16174.35958997112      0.4145011901855469      -14104.16361666362      -20175.15938608236      -14243.75576716739      -132.5122494262501       765.7938105610591       311.3013702173872     0.05131136490882618      -180.1256191024323       1875.864792975853       9.648870000000001       8.356166537813557                 23.2658       48
    2840       9.344319022427015      -180.1854463850076      -17086.38610362999      0.4158940315246582      -14139.02309254829      -19482.00393693808      -17638.13128140361      -76.83547670213358       1454.448455276728       789.9833807345451     0.05676885749296319      -180.1286775275146       1875.864792975853       9.648870000000001       8.356166537813557                 23.2658       48
    2850       12.26201024744532      -180.2074627831146      -16408.90319774734       0.417309045791626      -13642.56100076631      -18586.58844824987      -16997.56014422584       224.5672993898001       1094.327675831746       506.0272100861699     0.07449449346108458      -180.1329682896535       1875.864792975853       9.648870000000001       8.356166537813557                 23.2658       48
    2860       10.02603245219698       -180.199079654001      -14916.46766622366      0.4186980724334717      -13374.23308460628      -18515.93241894421      -12859.23749512049       393.8989996639733       324.6784169337924      -60.51114468512505     0.06091042120164727      -180.1381692327994       1875.864792975853       9.648870000000001       8.356166537813557                 23.2658       48
    2870       7.686129957955811      -180.1889263520006      -13380.74755241722      0.4200360774993896      -12937.00148525947        -18230.817128973      -8974.424043019195       325.9379789485303        7.15267160861986      -440.1349354223123     0.04669498282414797      -180.1422313691764       1875.864792975853       9.648870000000001       8.356166537813557                 23.2658       48
    2880        8.27469893173876      -180.1961069434342      -13221.34982062098      0.4214072227478027       -13388.4406471067      -17986.22028986278      -8289.388524893453       354.5148105887497       745.7883994429366      -352.3396832639389     0.05027067283615117       -180.145836270598       1875.864792975853       9.648870000000001       8.356166537813557                 23.2658       48
    2890       8.007677070300959      -180.1982993609184      -13967.97568405531      0.4232439994812012      -13530.40873996306      -17675.21837065497      -10698.29994154789       95.70249586899818       1314.644232580186      -186.3491810986166     0.04864845446335303      -180.1496509064551       1875.864792975853       9.648870000000001       8.356166537813557                 23.2658       48
    2900       8.029159780450744      -180.2022808825574      -14543.91587200899      0.4256370067596436      -13277.35287450294      -17319.77144622128      -13034.62329530273      -478.8231618535052       969.0282073581901      -268.9693556006214     0.04877896680011387      -180.1535019157573       1875.864792975853       9.648870000000001       8.356166537813557                 23.2658       48
    2910       8.086516748145231      -180.2069599100745      -14721.07561583707      0.4277100563049316      -13279.14131657731      -17354.33414317175      -13529.75138776215      -743.7012232066085       82.16822653896006      -325.4750363343728     0.04912742338827851      -180.1578324866863       1875.864792975853       9.648870000000001       8.356166537813557                 23.2658       48
    2920       6.641128441510066      -180.2024283692422      -14661.22202544194      0.4290452003479004      -13570.09079775804      -17712.61233026408       -12700.9629483037      -627.1207455359776      -861.5030198535887      -214.9902301176361     0.04034636158972112      -180.1620820076525       1875.864792975853       9.648870000000001       8.356166537813557                 23.2658       48
    2930       6.670779463805109      -180.2063196330055      -14752.15746747593      0.4303691387176514      -14010.40506096297      -18230.58823048091       -12015.4791109839      -488.0463973067018      -982.4428699441931      -182.8851796629087     0.04052649827546012        -180.16579313473       1875.864792975853       9.648870000000001       8.356166537813557                 23.2658       48
    2940       8.843126725406409      -180.2245078827835      -15131.82711352707      0.4316802024841309      -14539.68267139753      -18608.96220150128      -12246.83646768239      -480.5177702805892      -284.2121868627953       -216.177881664478     0.05372400061063216      -180.1707838821729       1875.864792975853       9.648870000000001       8.356166537813557                 23.2658       48
    2950       8.119930526217061      -180.2269467424255      -15744.44006817442      0.4330000877380371      -14836.77178630806      -18625.52379911989      -13771.02461909533      -393.7048411634248       381.0601247600355       122.3049177801355     0.04933041966881095      -180.1776163227567       1875.864792975853       9.648870000000001       8.356166537813557                 23.2658       48
    2960       6.704193387591087      -180.2246209801736      -16014.83022177573      0.4343130588531494      -14783.98710643413      -19073.07293311613      -14187.43062577694       13.52780628095484       437.2290197229881       119.1764967633511     0.04072949544123906      -180.1838914847323       1875.864792975853       9.648870000000001       8.356166537813557                 23.2658       48
    2970        5.87952189592902      -180.2254544860282      -15516.43918176352       0.435744047164917      -14391.64611759675      -19082.84521162126      -13074.82621607256       401.9746718958983      -79.20498055868822      -308.6132322848792     0.03571942908152762      -180.1897350569467       1875.864792975853       9.648870000000001       8.356166537813557                 23.2658       48
    2980       3.492424685618187      -180.2154986490745      -14828.83015741244      0.4370570182800293      -13901.85763023388      -18668.73613373031      -11915.89670827314        585.637813779301      -756.2251542166122      -555.2424974511805     0.02121727209943556      -180.1942813769751       1875.864792975853       9.648870000000001       8.356166537813557                 23.2658       48
    2990       2.935546370080003      -180.2150583048511      -14347.99033443505      0.4384431838989258      -13551.04245693729       -18141.8730082999      -11351.05553806797       430.5226983424309      -1089.300202164608      -559.7212107798076     0.01783411002418595      -180.1972241948269       1875.864792975853       9.648870000000001       8.356166537813557                 23.2658       48
    3000       3.547216604618932      -180.2233910578135      -14193.72401474276      0.4398040771484375      -13451.67090923874      -17689.23530238651      -11440.26583260303       60.99860455474957       -851.607368081666      -644.9064996606094     0.02155014543499419      -180.2018409123785       1875.864792975853       9.648870000000001       8.356166537813557                 23.2658       48
Loop time of 0.439823 on 1 procs for 3000 steps with 48 atoms

Performance: 589.328 ns/day, 0.041 hours/ns, 6820.923 timesteps/s
115.4% CPU use with 1 MPI tasks x 1 OpenMP threads

MPI task timing breakdown:
Section |  min time  |  avg time  |  max time  |%varavg| %total
---------------------------------------------------------------
Pair    | 0.42689    | 0.42689    | 0.42689    |   0.0 | 97.06
Neigh   | 0          | 0          | 0          |   0.0 |  0.00
Comm    | 0.0020087  | 0.0020087  | 0.0020087  |   0.0 |  0.46
Output  | 0.0065265  | 0.0065265  | 0.0065265  |   0.0 |  1.48
Modify  | 0.0034394  | 0.0034394  | 0.0034394  |   0.0 |  0.78
Other   |            | 0.0009568  |            |       |  0.22

Nlocal:        48.0000 ave          48 max          48 min
Histogram: 1 0 0 0 0 0 0 0 0 0
Nghost:        183.000 ave         183 max         183 min
Histogram: 1 0 0 0 0 0 0 0 0 0
Neighs:         0.00000 ave           0 max           0 min
Histogram: 1 0 0 0 0 0 0 0 0 0
FullNghs:      1578.00 ave        1578 max        1578 min
Histogram: 1 0 0 0 0 0 0 0 0 0

Total # of neighbors = 1578
Ave neighs/atom = 32.875000
Neighbor list builds = 0
Dangerous builds = 0

# write_data /path/to/data.out
write_data /home/dux/surface_sampling/sgmc_surf/GaN/lammps.out
System init for write_data ...
print "_end of MD_"
_end of MD_
log /dev/stdout
