LAMMPS (29 Sep 2021)
OMP_NUM_THREADS environment is not set. Defaulting to 1 thread. (src/comm.cpp:98)
  using 1 OpenMP thread(s) per MPI task

clear
OMP_NUM_THREADS environment is not set. Defaulting to 1 thread. (src/comm.cpp:98)
  using 1 OpenMP thread(s) per MPI task
atom_style atomic
units metal
boundary p p p
atom_modify sort 0 0.0

# read_data /path/to/data.data
read_data /home/dux/surface_sampling/sgmc_surf/GaN/lammps_from_cif.data
Reading data file ...
  triclinic box = (0.0000000 0.0000000 0.0000000) to (9.6488702 8.3561667 23.265754) with tilt (4.8244351 0.0000000 0.0000000)
  1 by 1 by 1 MPI processor grid
  reading atoms ...
  48 atoms
  read_data CPU = 0.000 seconds

### set bulk
group bulk id <= 36
36 atoms in group bulk
group surface id > 36
12 atoms in group surface

### interactions
pair_style tersoff
# pair_coeff * * /path/to/potential Atom1 Atom2
pair_coeff * * GaN.tersoff Ga N
Reading tersoff potential file GaN.tersoff with DATE: 2007-10-22
mass 1 69.723000
mass 2 14.007000

### run
reset_timestep 0
velocity surface create 100.0 87287 dist gaussian
fix 1 all nvt temp 100.0 0.1 $(100.0*dt)
fix 1 all nvt temp 100.0 0.1 0.10000000000000000555

# set bulk forces and velocities to 0
fix 2 bulk setforce 0.0 0.0 0.0
velocity bulk set 0.0 0.0 0.0

thermo 10 # output thermodynamic variables every N timesteps

thermo_style custom step temp press ke pe xy xz yz
thermo_modify flush yes format float %23.16g
# min_style cg
# minimize 1e-5 1e-5 500 10000

timestep 0.001
run 3000
Neighbor list info ...
  update every 1 steps, delay 10 steps, check yes
  max neighbors/atom: 2000, page size: 100000
  master list distance cutoff = 5.1
  ghost atom cutoff = 5.1
  binsize = 2.55, bins = 6 4 10
  1 neighbor lists, perpetual/occasional/extra = 1 0 0
  (1) pair tersoff, perpetual
      attributes: full, newton on
      pair build: full/bin/atomonly
      stencil: full/bin/3d
      bin: standard
Per MPI rank memory allocation (min/avg/max) = 2.941 | 2.941 | 2.941 Mbytes
Step Temp Press KinEng PotEng Xy Xz Yz
       0       23.40425531914894      -43986.26506970861            0.1421861595      -180.5234125659898       4.824435104999999                       0                       0
      10       11.87816591067262      -43763.24971285273     0.07216255205353722        -180.45241032388       4.824435104999999                       0                       0
      20       6.544900296599987      -43508.02753554253      0.0397617537834057      -180.4189125023538       4.824435104999999                       0                       0
      30        15.2966501595436      -43412.30070021931     0.09293061922893331      -180.4691972831298       4.824435104999999                       0                       0
      40       10.55769518638279      -43809.05911766428     0.06414039290090916      -180.4354671988149       4.824435104999999                       0                       0
      50       7.055563963273371      -44117.35852543977     0.04286415138462606       -180.411207881811       4.824435104999999                       0                       0
      60       14.56339285975145       -43768.1447362601     0.08847591481894156      -180.4528571883338       4.824435104999999                       0                       0
      70       16.70206240842176      -43293.95022447449      0.1014688174094474      -180.4602727685531       4.824435104999999                       0                       0
      80       15.28527574353043      -43288.11288644113      0.0928615170717651      -180.4466583673944       4.824435104999999                       0                       0
      90       11.32232516133716      -43692.67823708893     0.06878569342830472      -180.4184135455048       4.824435104999999                       0                       0
     100       12.22306987489063       -44039.7393940863     0.07425792186555426      -180.4203267837518       4.824435104999999                       0                       0
     110       19.29348649423735      -44104.34809275655      0.1172123065046311      -180.4576670015795       4.824435104999999                       0                       0
     120       14.40020758426102      -43892.23443215663     0.08748452725746891      -180.4211119496034       4.824435104999999                       0                       0
     130       13.66372674834623      -43306.95245133906     0.08301023913438578      -180.4116535846503       4.824435104999999                       0                       0
     140        28.1188248924649      -42600.68257557266      0.1708282389929923       -180.490862312508       4.824435104999999                       0                       0
     150       20.09826921635768      -42615.37475451774      0.1221015440783052      -180.4309314810261       4.824435104999999                       0                       0
     160       7.570015216698873      -42983.30111990873     0.04598955943444703      -180.3496769283699       4.824435104999999                       0                       0
     170       19.31490152107959      -42941.16616743599       0.117342407649947      -180.4156122555474       4.824435104999999                       0                       0
     180       15.28857804645062      -42952.39193848093     0.09288157931101713      -180.3823667593242       4.824435104999999                       0                       0
     190       9.042536929758331      -42673.59121712135     0.05493546283129559      -180.3396957920471       4.824435104999999                       0                       0
     200       23.37436583034847       -42268.7838324235      0.1420045740761528      -180.4196409140813       4.824435104999999                       0                       0
     210       27.32889904844379      -42831.87779960173      0.1660292603235337      -180.4314007953617       4.824435104999999                       0                       0
     220       28.17317085539538      -43805.11981110757      0.1711584030442745      -180.4242422364778       4.824435104999999                       0                       0
     230       28.15902774813213      -44534.99449861397      0.1710724804597814      -180.4111496308248       4.824435104999999                       0                       0
     240       18.41654684966791      -44772.22043725432      0.1118846992608062       -180.341312698473       4.824435104999999                       0                       0
     250       21.20555394916208      -44667.64572455182      0.1288285499788786      -180.3498262694311       4.824435104999999                       0                       0
     260       27.42325885999763      -44289.00892881303       0.166602517580944       -180.375704748881       4.824435104999999                       0                       0
     270       23.22877404477623      -43843.84581776056      0.1411200709564006      -180.3382539388044       4.824435104999999                       0                       0
     280       34.02437908382933      -43265.68664829788      0.2067058201738051      -180.3910904763725       4.824435104999999                       0                       0
     290       37.67399475935873      -42922.00728714673      0.2288780631902256       -180.395501666812       4.824435104999999                       0                       0
     300        19.1705549832828      -42699.40793176947      0.1164654696928716      -180.2698564222371       4.824435104999999                       0                       0
     310       25.82159008944116      -42181.91997494455      0.1568720165173112      -180.3010157522655       4.824435104999999                       0                       0
     320       32.70657592239564      -41735.78182801601      0.1986998670705714      -180.3277187116199       4.824435104999999                       0                       0
     330       21.01311204538538      -41688.70626356627      0.1276594217647248      -180.2439718697333       4.824435104999999                       0                       0
     340       36.73133533011814      -41221.74276559731      0.2231511933482906      -180.3267509593424       4.824435104999999                       0                       0
     350       44.02048946033551      -41207.02110354113      0.2674344579788552      -180.3504863435024       4.824435104999999                       0                       0
     360       38.11936690085694       -41599.2803341867      0.2315837999669095      -180.2961935070428       4.824435104999999                       0                       0
     370       51.17428261175661      -41323.38863477334       0.310895373961332      -180.3554106189435       4.824435104999999                       0                       0
     380       42.07754045555804      -41686.09890041393      0.2556306020848535       -180.278243267407       4.824435104999999                       0                       0
     390       33.64580732636443       -42961.1463148656      0.2044059108814526      -180.2110859487995       4.824435104999999                       0                       0
     400       40.67836263305061      -44000.09262270803      0.2471302794586031      -180.2367983550481       4.824435104999999                       0                       0
     410       27.17307717807255      -45328.04737728587      0.1650826071182909       -180.138378762024       4.824435104999999                       0                       0
     420        35.0980867609504      -45662.92861496813      0.2132288378453224      -180.1736537396739       4.824435104999999                       0                       0
     430       69.16420153360814      -43541.97231383312      0.4201882117950403      -180.3560333235616       4.824435104999999                       0                       0
     440       59.48256561868124      -42444.84842422886      0.3613700776716093      -180.2672560856879       4.824435104999999                       0                       0
     450       48.80264047594301       -43375.2263427846      0.2964871100622533      -180.1812051006078       4.824435104999999                       0                       0
     460       61.74115408360704       -43729.5775140074      0.3750915148777763      -180.2367432167241       4.824435104999999                       0                       0
     470        48.3464746847938      -42882.69733737057       0.293715799415778      -180.1321197108398       4.824435104999999                       0                       0
     480       50.75014115866904      -41432.86247682435      0.3083186184321813      -180.1276555629304       4.824435104999999                       0                       0
     490       71.39014092280975      -41217.66642554423      0.4337112984608826      -180.2274951634852       4.824435104999999                       0                       0
     500       47.44553755256175      -40800.04732520405      0.2882424019914126      -180.0572982642289       4.824435104999999                       0                       0
     510       45.76660743324651      -39882.50409002265      0.2780425207100375      -180.0302603287714       4.824435104999999                       0                       0
     520       54.18502490388325      -38291.63723141106      0.3291863162675143      -180.0597164502429       4.824435104999999                       0                       0
     530       40.62234923497535      -36834.71387940503       0.246789985360617      -179.9578841284765       4.824435104999999                       0                       0
     540       52.32967792068341      -37422.75028647894      0.3179146625240493      -180.0101604349155       4.824435104999999                       0                       0
     550       74.59050792730967      -39539.14894269414      0.4531542539044618      -180.1189257184527       4.824435104999999                       0                       0
     560        78.8531853157116      -41084.08999626461      0.4790509858781754      -180.1142644450508       4.824435104999999                       0                       0
     570       74.99944964702742      -41858.80851178733      0.4556386676058632      -180.0636038490284       4.824435104999999                       0                       0
     580       67.37122178413867      -42496.33505805054      0.4092954531423114      -179.9930547634021       4.824435104999999                       0                       0
     590       61.69351653404301      -44190.85768996918      0.3748021059592639      -179.9375862741944       4.824435104999999                       0                       0
     600       90.02215013416711       -44387.3157013774      0.5469049804390479      -180.0853943988772       4.824435104999999                       0                       0
     610       101.4891490077624      -43963.85647580379      0.6165695994834891      -180.1256675985016       4.824435104999999                       0                       0
     620       80.06620410489175      -42575.54457360446      0.4864203501533015       -179.971871544026       4.824435104999999                       0                       0
     630       77.20431006930012       -39638.3008367415      0.4690336947665866      -179.9366485240571       4.824435104999999                       0                       0
     640       87.45189442454912      -38928.95191955662      0.5312900940305698      -179.9795571388633       4.824435104999999                       0                       0
     650       70.14719622886287      -39873.83691247828      0.4261601275266546      -179.8569701757055       4.824435104999999                       0                       0
     660       75.46425435117987      -40440.67554132722      0.4584624616082684      -179.8739351985826       4.824435104999999                       0                       0
     670       85.14104845645402      -43879.60008934379      0.5172511806398639      -179.9152498245543       4.824435104999999                       0                       0
     680       82.73556741608735      -44617.08829483518      0.5026373377204542      -179.8833791713043       4.824435104999999                       0                       0
     690       87.11442346855895      -40907.23056505092      0.5292398814294547      -179.8944856679781       4.824435104999999                       0                       0
     700       102.0325649220239      -37164.94871408016      0.6198709744175083      -179.9695561509023       4.824435104999999                       0                       0
     710       106.7314916986273      -36825.75686086762      0.6484180203724502      -179.9848488163086       4.824435104999999                       0                       0
     720       87.54150129422771      -38329.82806982362      0.5318344760880495      -179.8601645617492       4.824435104999999                       0                       0
     730       78.66455274568528      -42626.86233209908      0.4779050002305691      -179.8013120819396       4.824435104999999                       0                       0
     740       98.85217452302453      -43651.14489368864      0.6005493813833385      -179.9198397331433       4.824435104999999                       0                       0
     750       93.90131011501708       -37817.9799280191      0.5704717571743825      -179.8879708117365       4.824435104999999                       0                       0
     760       70.40335102374803      -32857.99735040606      0.4277163260053318      -179.7457366815995       4.824435104999999                       0                       0
     770       78.57164510574167      -32206.99373384347      0.4773405652450653      -179.7964047306575       4.824435104999999                       0                       0
     780       65.51047478173952      -35925.48230966696      0.3979909930574052       -179.717732544073       4.824435104999999                       0                       0
     790       63.92235348730227      -39856.27154035824      0.3883427959839675      -179.7081024587543       4.824435104999999                       0                       0
     800       86.80857173736784      -43326.30542179503      0.5273817627907083      -179.8463236116052       4.824435104999999                       0                       0
     810       104.6227788868187      -40332.59870434493      0.6356071117530165      -179.9558626312036       4.824435104999999                       0                       0
     820       89.28675056891151      -33418.63178648207      0.5424372612804678      -179.8677881791808       4.824435104999999                       0                       0
     830       96.03157726665737      -30633.24275192423      0.5834136132971413      -179.9166796782249       4.824435104999999                       0                       0
     840       106.5864339992721      -32720.32928537514      0.6475367619476055      -179.9947352844534       4.824435104999999                       0                       0
     850       72.29403287871931      -37084.39444901312      0.4392026471092872      -179.8021378563292       4.824435104999999                       0                       0
     860       64.38588933362276      -39386.01383486418      0.3911588813872475      -179.7659629746059       4.824435104999999                       0                       0
     870        87.0778566138755      -37586.52087008805      0.5290177294933416      -179.9172898957852       4.824435104999999                       0                       0
     880       88.19195915442261      -31545.77754056394       0.535786155122333      -179.9412301519371       4.824435104999999                       0                       0
     890       71.34861817126104      -29357.96255957241      0.4334590383272413      -179.8566930712124       4.824435104999999                       0                       0
     900       61.41960079768614      -33376.31580811577      0.3731380057326982      -179.8096840840059       4.824435104999999                       0                       0
     910       81.86806845006349      -39537.39452972803      0.4973670847400812      -179.9479096805487       4.824435104999999                       0                       0
     920       87.79702382869799      -37806.66430411042         0.5333868334413      -180.0033349411743       4.824435104999999                       0                       0
     930       53.32462410479944      -33591.44670762786       0.323959186261273      -179.8089879219396       4.824435104999999                       0                       0
     940       83.02480222006471      -28487.18695860177      0.5043945047574087      -180.0026323223844       4.824435104999999                       0                       0
     950       106.1714499629911      -27779.59274484204      0.6450156398025942      -180.1658091136363       4.824435104999999                       0                       0
     960       74.45097110559058      -34309.12472180864      0.4523065360634741      -179.9979471371167       4.824435104999999                       0                       0
     970       58.80822387356859      -40288.72776347892      0.3572732986192271      -179.9199514679822       4.824435104999999                       0                       0
     980       73.07977345098458      -38841.92066083395      0.4439761993035466      -180.0232459656073       4.824435104999999                       0                       0
     990       60.56704900102765      -31486.35277869545      0.3679585601964621      -179.9638793138719       4.824435104999999                       0                       0
    1000       50.31846011406741       -27387.4085486621      0.3056960581744902      -179.9129413725698       4.824435104999999                       0                       0
    1010       71.27069703169275      -29591.60549820594      0.4329856497306807      -180.0518715173725       4.824435104999999                       0                       0
    1020       59.25799207150342      -35085.24936838391       0.360005742435855      -179.9917038499038       4.824435104999999                       0                       0
    1030        44.6634079840314        -39460.093573739      0.2713403338338727      -179.9108472985264       4.824435104999999                       0                       0
    1040       81.22075246447767      -38386.99472353226      0.4934344933066721      -180.1416561886895       4.824435104999999                       0                       0
    1050        75.1049075354909      -31061.67555207429      0.4562793481977099      -180.1176916312625       4.824435104999999                       0                       0
    1060       34.35981888614261       -28102.2591396795       0.208743693055637      -179.8784590543516       4.824435104999999                       0                       0
    1070       51.94770530248103      -31532.61410841525      0.3155940922313505      -179.9900013701796       4.824435104999999                       0                       0
    1080       78.20509818682173      -38344.28124479468      0.4751137095742873      -180.1563159047873       4.824435104999999                       0                       0
    1090       56.34882741766963      -39423.64358104942      0.3423319073216338      -180.0308995511017       4.824435104999999                       0                       0
    1100       61.29112352827998      -36933.71491727628       0.372357477180484      -180.0662251068005       4.824435104999999                       0                       0
    1110       98.43918736555723       -30253.2568394236      0.5980403907300426      -180.3013912230474       4.824435104999999                       0                       0
    1120       66.82335681151636      -28322.67010073322      0.4059670491696371      -180.1225420491784       4.824435104999999                       0                       0
    1130       41.49960815475571      -32174.68054879453      0.2521195322737645       -179.977073885343       4.824435104999999                       0                       0
    1140       52.70104667917416      -40414.05783256733      0.3201708119638856      -180.0512444872875       4.824435104999999                       0                       0
    1150       63.93234795868046      -43173.94192308874       0.388403514664486      -180.1263140792804       4.824435104999999                       0                       0
    1160       48.13270197395724      -35554.59499429698      0.2924170817105884      -180.0363686727445       4.824435104999999                       0                       0
    1170       41.53817524690162      -26695.87399364411       0.252353836106146      -179.9999423983342       4.824435104999999                       0                       0
    1180       62.36091222098808      -23498.82918223641       0.378856686132808      -180.1293014068517       4.824435104999999                       0                       0
    1190        61.7857007871884      -31254.17721374136      0.3753621462058936      -180.1291292584981       4.824435104999999                       0                       0
    1200       38.33017787319064      -40904.16240793611      0.2328645244389275      -179.9889974142731       4.824435104999999                       0                       0
    1210       41.21895922735205      -43476.50229506407      0.2504145263844009      -180.0069099598559       4.824435104999999                       0                       0
    1220       76.05243961868064      -37392.39754866545       0.462035820517577      -180.2179857263855       4.824435104999999                       0                       0
    1230       58.50977444282935      -26408.08639120096      0.3554601506346786      -180.1111994849885       4.824435104999999                       0                       0
    1240       41.13433477259721      -22448.94672787154      0.2499004136276695      -180.0055750041139       4.824435104999999                       0                       0
    1250        69.5296410018114      -28775.08702554527      0.4224083394515281       -180.177155313993       4.824435104999999                       0                       0
    1260       70.43223620272641      -39784.76122357614      0.4278918100192173      -180.1817925852882       4.824435104999999                       0                       0
    1270        55.8284915253279      -44987.01080731652      0.3391707487556723      -180.0940579563744       4.824435104999999                       0                       0
    1280       48.93980484120647      -41712.99703377183      0.2973204146921644      -180.0528715739376       4.824435104999999                       0                       0
    1290       56.85230344224428      -34836.20163774302      0.3453906383668393      -180.1012496290172       4.824435104999999                       0                       0
    1300       49.79522994271577      -28212.47929356299      0.3025173162070778      -180.0578676585332       4.824435104999999                       0                       0
    1310       49.65730229151242      -30197.56310892086      0.3016793744419572      -180.0560608274023       4.824435104999999                       0                       0
    1320       64.55553344057043      -37711.95156728988      0.3921895078147827      -180.1451945657097       4.824435104999999                       0                       0
    1330       49.89107157863278      -41637.08734995229      0.3030995758835942      -180.0546183285293       4.824435104999999                       0                       0
    1340       50.07980292777645      -37076.34155100065       0.304246161636743      -180.0544552700428       4.824435104999999                       0                       0
    1350       57.08342280181147      -32650.80063633673      0.3467947408975475      -180.0949370726881       4.824435104999999                       0                       0
    1360       64.94118213221333      -28661.63764987642      0.3945324110874213      -180.1407135742167       4.824435104999999                       0                       0
    1370       52.72163835282112      -29871.00137777568      0.3202959110517913      -180.0652183182144       4.824435104999999                       0                       0
    1380       63.14155327390374      -34282.27171322743      0.3835992575903711      -180.1277396952304       4.824435104999999                       0                       0
    1390       69.30851782696433      -38317.78508287892      0.4210649660102793      -180.1655573619385       4.824435104999999                       0                       0
    1400       47.73322257212285      -35501.59383529184       0.289990153736524      -180.0362524466133       4.824435104999999                       0                       0
    1410       41.40272077990279      -32460.26654142318      0.2515309194960231      -179.9986679015115       4.824435104999999                       0                       0
    1420       69.27762084031185      -31624.25765045407      0.4208772598084654      -180.1688946590242       4.824435104999999                       0                       0
    1430       55.98779183402815      -32389.50204195399      0.3401385342627259      -180.0900502967992       4.824435104999999                       0                       0
    1440       41.61065389759811      -34548.16782057691      0.2527941603483723      -180.0044475907402       4.824435104999999                       0                       0
    1450        62.9562970423589      -36711.03220111282       0.382473783964844      -180.1359389130396       4.824435104999999                       0                       0
    1460       49.25705433468227      -35971.64729132893      0.2992477773219737      -180.0551761065033       4.824435104999999                       0                       0
    1470       38.10797677634604      -32093.87915534813      0.2315146023770547      -179.9890276947872       4.824435104999999                       0                       0
    1480       68.09445328168633      -30805.83866486374      0.4136892485296655      -180.1727296847026       4.824435104999999                       0                       0
    1490       67.06934344687411      -30725.09062236881      0.4074614737728942      -180.1706210621133       4.824435104999999                       0                       0
    1500       40.50264679618995      -32006.77496135632       0.246062765894687      -180.0136965011054       4.824435104999999                       0                       0
    1510       60.23422079128681      -33338.09521732804      0.3659365533318562      -180.1376042959026       4.824435104999999                       0                       0
    1520       68.59273254315153      -36112.13779005972      0.4167164080602773      -180.1959596504327       4.824435104999999                       0                       0
    1530       36.86994038524679      -37928.84435524998      0.2239932504959027      -180.0100702350241       4.824435104999999                       0                       0
    1540       61.19039399613133      -38058.27710845094      0.3717455224257121      -180.1640250248555       4.824435104999999                       0                       0
    1550       61.74416705180282      -36828.52399559063       0.375109819342952      -180.1776139455721       4.824435104999999                       0                       0
    1560       34.42260947070528      -35681.49442786873      0.2091251600987017      -180.0192346443282       4.824435104999999                       0                       0
    1570       52.55445305430427      -35406.16466969471      0.3192802224431679      -180.1358976031347       4.824435104999999                       0                       0
    1580        49.9822957263144      -36009.88474656691      0.3036537832717652       -180.128418050745       4.824435104999999                       0                       0
    1590       49.94752780616134      -36830.53892948833      0.3034425602709495      -180.1353999694027       4.824435104999999                       0                       0
    1600        58.9869120749416      -37583.09668856823      0.3583588699717325      -180.1998270299208       4.824435104999999                       0                       0
    1610       34.92540553894712       -34823.0778501864      0.2121797602549611      -180.0619072213079       4.824435104999999                       0                       0
    1620       43.02933303753007      -30511.68640977516      0.2614129579011681      -180.1165195422042       4.824435104999999                       0                       0
    1630        64.4409632011831      -29112.09404197814      0.3914934676242558      -180.2550074357609       4.824435104999999                       0                       0
    1640       48.55136939471197      -32295.12667787639      0.2949605812517245      -180.1685189023716       4.824435104999999                       0                       0
    1650       48.37024875703476      -35034.52569892172       0.293860232296958      -180.1758214322595       4.824435104999999                       0                       0
    1660       56.86783730836737      -37028.55643574881      0.3454850101268509      -180.2379087189939       4.824435104999999                       0                       0
    1670       40.39875512277756      -34558.60449565627      0.2454316004145168      -180.1476749499498       4.824435104999999                       0                       0
    1680       32.29075000449355      -31243.18899781451      0.1961736303037606      -180.1047010708641       4.824435104999999                       0                       0
    1690        38.9356604584805      -30445.61833148393      0.2365429684770959      -180.1504946680637       4.824435104999999                       0                       0
    1700       33.20116612498662      -32691.76979593313      0.2017046147317884      -180.1198543531774       4.824435104999999                       0                       0
    1710       51.30043873573202       -35403.7894635448      0.3116618010285839      -180.2337624847711       4.824435104999999                       0                       0
    1720       50.29153498192112      -37003.82905525567      0.3055324818896777      -180.2339260131788       4.824435104999999                       0                       0
    1730       27.66350884762594      -34992.36864789286      0.1680620907480869      -180.1006724086416       4.824435104999999                       0                       0
    1740       46.52845544107875      -31307.84107194277      0.2826709201561743      -180.2187813591405       4.824435104999999                       0                       0
    1750       48.57891027321182      -30665.59308105311      0.2951278983352954      -180.2362635421004       4.824435104999999                       0                       0
    1760       32.65190918364958      -33459.86108774436      0.1983677542334527      -180.1436705585543       4.824435104999999                       0                       0
    1770       45.59178427948922      -35748.17670701163      0.2769804303984484      -180.2259269088319       4.824435104999999                       0                       0
    1780       51.42998648425191      -37921.60219351267      0.3124488329842148      -180.2669019208001       4.824435104999999                       0                       0
    1790       36.65980274368441      -37376.28313390259      0.2227166166610421      -180.1826762813438       4.824435104999999                       0                       0
    1800       38.26526061473761      -35394.42486671504      0.2324701373696173      -180.1970541323749       4.824435104999999                       0                       0
    1810       35.73743814101073      -32990.43063568811      0.2171130424936722      -180.1861274306549       4.824435104999999                       0                       0
    1820       39.98693996755659      -33029.37886773082      0.2429297299406951      -180.2155635445952       4.824435104999999                       0                       0
    1830       51.26037616081086      -35120.76164908733      0.3114184117991449      -180.2895234490634       4.824435104999999                       0                       0
    1840       27.87774786530147      -37921.12445082125      0.1693636413730885      -180.1524935865002       4.824435104999999                       0                       0
    1850        31.3587835901177      -37270.12622101499       0.190511722952465      -180.1764590866034       4.824435104999999                       0                       0
    1860       44.98931979782552      -34087.47200349475        0.27332032202436      -180.2630330934092       4.824435104999999                       0                       0
    1870       30.59067798376462      -31633.74088714025       0.185845307175997      -180.1789592653097       4.824435104999999                       0                       0
    1880       40.77428922943531      -32505.05565276423      0.2477130552892311      -180.2437877182362       4.824435104999999                       0                       0
    1890        43.5288377815946      -34891.25980451421      0.2644475625165286      -180.2646326261359       4.824435104999999                       0                       0
    1900        34.9486375871578      -36588.63552146572      0.2123209002172179       -180.216474839712       4.824435104999999                       0                       0
    1910       43.76418405542562      -34942.26437575064      0.2658773445101172      -180.2745675902587       4.824435104999999                       0                       0
    1920       31.75518606767783      -32592.18673295747      0.1929199579136708       -180.206498377023       4.824435104999999                       0                       0
    1930       30.93305833940153       -30667.4996232974      0.1879253454934915       -180.204610443536       4.824435104999999                       0                       0
    1940       49.29148413493072      -30250.17447145389      0.2994569461676782      -180.3208840810895       4.824435104999999                       0                       0
    1950       29.65469250413476      -33730.13167594463       0.180158983091699      -180.2069834374499       4.824435104999999                       0                       0
    1960       24.39372927478447      -34924.82780719334      0.1481974382080211       -180.177878944345       4.824435104999999                       0                       0
    1970       39.86121381338342      -32820.06241957637      0.2421659150375154      -180.2751436106622       4.824435104999999                       0                       0
    1980       33.06836755867472      -30881.92329654217      0.2008978333207368       -180.237566641069       4.824435104999999                       0                       0
    1990       32.82750635251219       -31835.2317756125      0.1994345468623649      -180.2391865979888       4.824435104999999                       0                       0
    2000       38.35160660711563      -34759.27114125993      0.2329947088578801      -180.2764941481313       4.824435104999999                       0                       0
    2010       27.99254469082496      -37974.21911416666      0.1700610581257857      -180.2169663985308       4.824435104999999                       0                       0
    2020       33.65089709846652      -39874.08166368099      0.2044368324014095      -180.2541635452382       4.824435104999999                       0                       0
    2030       36.99150254910966      -37278.59418911271      0.2247317682134919      -180.2781215271004       4.824435104999999                       0                       0
    2040       28.46244508465508      -32892.69314537709      0.1729158095987615      -180.2295273570815       4.824435104999999                       0                       0
    2050        40.9128646709525       -30374.7001169649      0.2485549325274368      -180.3087739734723       4.824435104999999                       0                       0
    2060       38.16600373559483      -33105.39255057934      0.2318671293158759      -180.2975921442739       4.824435104999999                       0                       0
    2070       22.93792101271406      -37707.36397136366      0.1393530728167924      -180.2092180731039       4.824435104999999                       0                       0
    2080       32.56427448158271      -39384.19967904528      0.1978353535415315      -180.2711403924125       4.824435104999999                       0                       0
    2090        31.9958720534204      -35908.76603240283      0.1943821798682487      -180.2719336411459       4.824435104999999                       0                       0
    2100       24.00160531723699      -30471.73717740337      0.1458151962263247      -180.2264360118575       4.824435104999999                       0                       0
    2110       36.80722658774535      -27992.19589062934      0.2236122499516515      -180.3074504096678       4.824435104999999                       0                       0
    2120       33.66529836528839      -32006.93853289726      0.2045243233637757      -180.2928555763438       4.824435104999999                       0                       0
    2130       22.28521704062731      -38216.71722938416       0.135387748143314      -180.2269377660995       4.824435104999999                       0                       0
    2140       29.62478995092133       -40765.9383432599      0.1799773182985798      -180.2741995262756       4.824435104999999                       0                       0
    2150       30.47373904292198      -37460.03002245395       0.185134876586872      -180.2822014869343       4.824435104999999                       0                       0
    2160       30.40902479083442      -32288.70840830108       0.184741722827277      -180.2847124714031       4.824435104999999                       0                       0
    2170       32.25933369130376      -30047.20982518354      0.1959827690754415      -180.2991844841949       4.824435104999999                       0                       0
    2180       26.39886309609215      -32155.92195543264       0.160379080966893      -180.2667717722863       4.824435104999999                       0                       0
    2190        24.8455976868824      -35355.88793370729        0.15094264130205      -180.2596412016258       4.824435104999999                       0                       0
    2200       32.75596280865968      -36367.29401443242       0.198999903606312      -180.3103737700594       4.824435104999999                       0                       0
    2210       27.19684053150265       -33583.0526334522      0.1652269748802637       -180.279310012077       4.824435104999999                       0                       0
    2220       29.15230652797417       -31341.1088882328      0.1771068743378482      -180.2939260174921       4.824435104999999                       0                       0
    2230       27.76228457433593      -31270.11781605043      0.1686621756916665       -180.288246430212       4.824435104999999                       0                       0
    2240       21.92169787362479      -34093.68332721198      0.1331792867521738      -180.2548603805854       4.824435104999999                       0                       0
    2250       27.24679640331179      -36039.65890107126      0.1655304681322454      -180.2888191009904       4.824435104999999                       0                       0
    2260       33.40928062384939       -35935.9242665884      0.2029689575158697      -180.3286234701166       4.824435104999999                       0                       0
    2270       24.70937062615502      -33578.28864252254      0.1501150310097903      -180.2783476357775       4.824435104999999                       0                       0
    2280       24.29949891501088      -31817.74027148537      0.1476249673995375      -180.2778910565619       4.824435104999999                       0                       0
    2290       29.68845958780477       -33794.1171315237      0.1803641257838754      -180.3128252361365       4.824435104999999                       0                       0
    2300       26.22482905821477      -36044.91302128744      0.1593217847132576      -180.2943126993118       4.824435104999999                       0                       0
    2310       25.17453725526642      -37714.73111780339      0.1529410237884111      -180.2901495199303       4.824435104999999                       0                       0
    2320       31.75804648056692      -36488.95393832044      0.1929373355707565      -180.3329937304453       4.824435104999999                       0                       0
    2330       24.34918391707994      -34369.93683920414      0.1479268150564108       -180.291312649881       4.824435104999999                       0                       0
    2340       22.68453182024385      -32884.98567735087      0.1378136760000662      -180.2837252798589       4.824435104999999                       0                       0
    2350       30.54037835704285      -33912.50791703454      0.1855397255349524      -180.3345141399591       4.824435104999999                       0                       0
    2360       24.54865325600749      -35204.84818331808      0.1491386365330338      -180.3018354442346       4.824435104999999                       0                       0
    2370       19.99382366862583       -37284.9261302211      0.1214670136860173      -180.2768453158372       4.824435104999999                       0                       0
    2380       26.52355464247041      -36568.49655766453       0.161136610393054       -180.319450438699       4.824435104999999                       0                       0
    2390       21.24486776768913       -33672.5246343945      0.1290673903433942      -180.2903576612509       4.824435104999999                       0                       0
    2400       24.93045049006666      -30790.22286125433      0.1514581413272829      -180.3155265160637       4.824435104999999                       0                       0
    2410       25.25546773597038       -30727.5751850694      0.1534326948149346      -180.3210512079163       4.824435104999999                       0                       0
    2420       19.51732187533838      -32846.26646143568      0.1185721572140418      -180.2893103281993       4.824435104999999                       0                       0
    2430       26.23955755486522      -35000.82932410909       0.159411263671053      -180.3333620299717       4.824435104999999                       0                       0
    2440       25.11796542306832      -35663.07719806139      0.1525973370764675       -180.330976744206       4.824435104999999                       0                       0
    2450       18.87964717471939      -34646.84996348393      0.1146981387735942      -180.2968453308047       4.824435104999999                       0                       0
    2460        26.2001329215019      -33275.08638566296      0.1591717500812726      -180.3452165607952       4.824435104999999                       0                       0
    2470       24.69824488783134      -33762.29110029996      0.1500474396259896      -180.3413779168778       4.824435104999999                       0                       0
    2480       19.24997960990891      -34942.95788320442      0.1169479923143218      -180.3126150414133       4.824435104999999                       0                       0
    2490       24.67216301965798      -35244.94575153021      0.1498889863610775      -180.3501483133621       4.824435104999999                       0                       0
    2500       19.28244878788631      -34498.91681322052      0.1171452499350311      -180.3221901285291       4.824435104999999                       0                       0
    2510       17.52963235562087      -32727.28957975351      0.1064964925439595      -180.3149867226851       4.824435104999999                       0                       0
    2520       21.23595234226356      -31991.83789901714      0.1290132271117816      -180.3411838540387       4.824435104999999                       0                       0
    2530       18.77114908542438      -32818.19826000583      0.1140389882721329      -180.3298424350587       4.824435104999999                       0                       0
    2540       21.39542261435746      -33927.85355977505      0.1299820451850019      -180.3495977170503       4.824435104999999                       0                       0
    2550       16.81825563682357      -34735.07886543878      0.1021747176263555      -180.3256916230023       4.824435104999999                       0                       0
    2560        17.3615514474323      -34087.27351499519      0.1054753629034428      -180.3319877999895       4.824435104999999                       0                       0
    2570       25.20421819864363       -32756.7406505424      0.1531213422515108      -180.3840645371984       4.824435104999999                       0                       0
    2580         19.851582516477      -33207.39397974934      0.1206028664242862      -180.3571272721776       4.824435104999999                       0                       0
    2590       18.70200191402893      -35653.66390062182      0.1136189035222899      -180.3551049621592       4.824435104999999                       0                       0
    2600       17.78558341459635      -37607.81798116108       0.108051453280775      -180.3545626993312       4.824435104999999                       0                       0
    2610       14.68542403537545      -37493.92917301729     0.08921728188935846      -180.3397702140424       4.824435104999999                       0                       0
    2620       19.26148887741199      -35245.90746871845      0.1170179137248776      -180.3716019940575       4.824435104999999                       0                       0
    2630        18.4634840483988      -32761.61084834042      0.1121698533891571       -180.371839060676       4.824435104999999                       0                       0
    2640       11.87288203476313      -31821.84143971588     0.07213045130892472      -180.3356369998871       4.824435104999999                       0                       0
    2650       15.29442433260392      -33089.37815176455     0.09291709682542382      -180.3595089494513       4.824435104999999                       0                       0
    2660       16.63926655574648      -34935.93483938579      0.1010873183614037      -180.3716448321136       4.824435104999999                       0                       0
    2670       11.66335171767376      -35367.72213009204     0.07085750710798792      -180.3448534703203       4.824435104999999                       0                       0
    2680       13.67756519987874      -34734.35216860994     0.08309431086621416      -180.3598430318421       4.824435104999999                       0                       0
    2690       18.39619793045593       -33074.5593592754      0.1117610749611534      -180.3925827811404       4.824435104999999                       0                       0
    2700       13.57035923500574      -32401.35510834608     0.08244301031368974      -180.3679378729469       4.824435104999999                       0                       0
    2710       13.30443579088818      -33178.73002736345      0.0808274650752496      -180.3699917156069       4.824435104999999                       0                       0
    2720       18.54304291510726      -34845.61217090639      0.1126531915495554      -180.4068914879114       4.824435104999999                       0                       0
    2730        13.9653925219484      -36282.57728411771     0.08484292713134141      -180.3849797118028       4.824435104999999                       0                       0
    2740       11.29365537807149      -36129.46101991277     0.06861151799222888      -180.3728824489216       4.824435104999999                       0                       0
    2750       14.71785483971335      -34560.17575544586     0.08941430638150405       -180.398115186811       4.824435104999999                       0                       0
    2760        11.2128284312774      -32998.51933122655     0.06812047595769087      -180.3813505647591       4.824435104999999                       0                       0
    2770       11.18310836670921      -32652.29787491757     0.06793991982448262      -180.3845959331579       4.824435104999999                       0                       0
    2780       12.78321875567183      -33468.75789205419     0.07766095336646844      -180.3985285649019       4.824435104999999                       0                       0
    2790       8.169982679724255      -34612.20277270202     0.04963449785394635      -180.3739855349925       4.824435104999999                       0                       0
    2800       11.76015607214686      -35079.55091669576     0.07144561551809167      -180.3988690239108       4.824435104999999                       0                       0
    2810       11.68908991254708      -34751.13823042888     0.07101387247965205      -180.4029065976235       4.824435104999999                       0                       0
    2820       7.368638793594839      -34222.57368723538     0.04476615198889662      -180.3800860464241       4.824435104999999                       0                       0
    2830       10.77906648089196      -33619.06700777153     0.06548527372538254      -180.4039670549241       4.824435104999999                       0                       0
    2840       11.38564564996403      -33207.26239954043     0.06917037975874961      -180.4122928519802       4.824435104999999                       0                       0
    2850       9.355481827246798      -33249.78393423884     0.05683667406413495      -180.4043246280915       4.824435104999999                       0                       0
    2860       10.88927545021769      -33707.23695597325     0.06615481821108371      -180.4183874855377       4.824435104999999                       0                       0
    2870       8.314621846602197      -34473.33753921092     0.05051321359906249      -180.4075276489595       4.824435104999999                       0                       0
    2880       8.195325412132409      -34800.62821641647     0.04978846070143773      -180.4105712704744       4.824435104999999                       0                       0
    2890       9.156782139715361      -34699.20989905269     0.05562952839431184       -180.420836123539       4.824435104999999                       0                       0
    2900       7.028143961756432      -34520.21289218479     0.04269756865614301      -180.4121182001085       4.824435104999999                       0                       0
    2910       7.720221163860259      -34278.11324208944     0.04690209463241436      -180.4201873645497       4.824435104999999                       0                       0
    2920       6.322647615248632      -34180.28621646632     0.03841151833395429      -180.4158629190123       4.824435104999999                       0                       0
    2930       5.160855931091059      -34424.59293367313      0.0313533703409162      -180.4118065252396       4.824435104999999                       0                       0
    2940       7.049666384668096      -34629.80390755378     0.04282832225693972      -180.4269462815009       4.824435104999999                       0                       0
    2950       5.652725005847947      -34518.99914653633     0.03434158653334848        -180.42281414419       4.824435104999999                       0                       0
    2960       6.183225317617605      -34346.15631095579     0.03756449625277737      -180.4302680394708       4.824435104999999                       0                       0
    2970       5.595151065483308      -34198.13637902738     0.03399181178700002      -180.4319917598033       4.824435104999999                       0                       0
    2980       4.028084367496585      -33986.37343384535     0.02447152616249757      -180.4267188531248       4.824435104999999                       0                       0
    2990       5.479935025540046       -33622.6598428634      0.0332918482116186       -180.440687314649       4.824435104999999                       0                       0
    3000       4.258167793582402      -33599.88368645308     0.02586933516234119      -180.4421988719151       4.824435104999999                       0                       0
Loop time of 0.510007 on 1 procs for 3000 steps with 48 atoms

Performance: 508.228 ns/day, 0.047 hours/ns, 5882.273 timesteps/s
103.3% CPU use with 1 MPI tasks x 1 OpenMP threads

MPI task timing breakdown:
Section |  min time  |  avg time  |  max time  |%varavg| %total
---------------------------------------------------------------
Pair    | 0.50113    | 0.50113    | 0.50113    |   0.0 | 98.26
Neigh   | 0          | 0          | 0          |   0.0 |  0.00
Comm    | 0.002089   | 0.002089   | 0.002089   |   0.0 |  0.41
Output  | 0.0028334  | 0.0028334  | 0.0028334  |   0.0 |  0.56
Modify  | 0.0030127  | 0.0030127  | 0.0030127  |   0.0 |  0.59
Other   |            | 0.0009429  |            |       |  0.18

Nlocal:        48.0000 ave          48 max          48 min
Histogram: 1 0 0 0 0 0 0 0 0 0
Nghost:        179.000 ave         179 max         179 min
Histogram: 1 0 0 0 0 0 0 0 0 0
Neighs:         0.00000 ave           0 max           0 min
Histogram: 1 0 0 0 0 0 0 0 0 0
FullNghs:      1626.00 ave        1626 max        1626 min
Histogram: 1 0 0 0 0 0 0 0 0 0

Total # of neighbors = 1626
Ave neighs/atom = 33.875000
Neighbor list builds = 0
Dangerous builds = 0

# write_data /path/to/data.out
write_data /home/dux/surface_sampling/sgmc_surf/GaN/lammps.out
System init for write_data ...
print "_end of MD_"
_end of MD_
log /dev/stdout
