LAMMPS data file via write_data, version 29 Sep 2021, timestep = 34

48 atoms
2 atom types

0 9.64887 xlo xhi
0 8.356166537813557 ylo yhi
0 23.2658 zlo zhi
-4.824434999999999 0 0 xy xz yz

Masses

1 69.723
2 14.007

Atoms # atomic

1 1 0 0 13.265693844 0 0 0
2 2 3.21630608145 7.427712873797092 12.620067893999998 1 0 0
3 1 3.21630608145 7.427712873797092 10.645732105999999 1 0 0
4 2 0 0 10.000106156000001 0 0 0
5 1 3.2163060814499995 5.570805545764164 13.265693844 0 0 0
6 2 1.608177162900001 4.6423518817477 12.620067893999998 1 0 0
7 1 1.608177162900001 4.6423518817477 10.645732105999999 1 0 0
8 2 3.2163060814499995 5.570805545764164 10.000106156000001 0 0 0
9 1 1.6081289185500003 2.785360992049393 13.265693844 0 0 0
10 2 6.661338147750939e-16 1.8569073280329287 12.620067893999998 1 0 0
11 1 6.661338147750939e-16 1.8569073280329287 10.645732105999999 1 0 0
12 2 1.6081289185500003 2.785360992049393 10.000106156000001 0 0 0
13 1 6.4326121629 0 13.265693844 0 0 0
14 2 4.824435000116978e-05 7.427712873797092 12.620067893999998 1 0 0
15 1 4.824435000116978e-05 7.427712873797092 10.645732105999999 1 0 0
16 2 6.4326121629 0 10.000106156000001 0 0 0
17 1 4.824434999939342e-05 5.570805545764164 13.265693844 1 0 0
18 2 -1.6080806741999987 4.6423518817477 12.620067893999998 1 0 0
19 1 -1.6080806741999987 4.6423518817477 10.645732105999999 1 0 0
20 2 4.824434999939342e-05 5.570805545764164 10.000106156000001 1 0 0
21 1 -1.6081289185499976 2.785360992049393 13.265693844 1 0 0
22 2 6.4326121629000035 1.8569073280329287 12.620067893999998 0 0 0
23 1 6.4326121629000035 1.8569073280329287 10.645732105999999 0 0 0
24 2 -1.6081289185499976 2.785360992049393 10.000106156000001 1 0 0
25 1 3.2162578371 0 13.265693844 0 0 0
26 2 -3.216306081450001 7.427712873797092 12.620067893999998 1 0 0
27 1 -3.216306081450001 7.427712873797092 10.645732105999999 1 0 0
28 2 3.2162578371 0 10.000106156000001 0 0 0
29 1 -3.2163060814499995 5.570805545764164 13.265693844 1 0 0
30 2 4.824435000000001 4.6423518817477 12.620067893999998 0 0 0
31 1 4.824435000000001 4.6423518817477 10.645732105999999 0 0 0
32 2 -3.2163060814499995 5.570805545764164 10.000106156000001 1 0 0
33 1 4.824386755650002 2.785360992049393 13.265693844 0 0 0
34 2 3.2162578371000015 1.8569073280329287 12.620067893999998 0 0 0
35 1 3.2162578371000015 1.8569073280329287 10.645732105999999 0 0 0
36 2 4.824386755650002 2.785360992049393 10.000106156000001 0 0 0
37 1 9.235453746314982e-07 5.332091691207839e-07 15.679566124292343 0 0 0
38 1 2.3878951995253375 1.3786519362425689 15.532321241779805 0 0 0
39 1 7.26097662352456 1.3786515118440033 15.532320612850521 0 0 0
40 1 4.824435245370304 0.028090520185832912 15.532301486259497 0 0 0
41 1 4.824439340546874 2.7853913519537596 15.679561033579706 0 0 0
42 1 1.9329183313931964e-06 2.813474182025467 15.532310241102556 1 0 0
43 1 2.436544726771598 4.164038221310779 15.532301486259497 0 0 0
44 1 7.212331756226564 4.1640416809422955 15.532284807130145 0 0 0
45 1 4.824435543985011 5.5988644563352326 15.53232061285052 0 0 0
46 1 9.352978622700903e-07 5.570778231870178 15.679555380173884 1 0 0
47 1 -2.387893919015138 6.949431120757208 15.532310241102556 1 0 0
48 1 2.387895604050562 6.94942986167102 15.532310144463773 1 0 0

Velocities

1 0 0 0
2 0 0 0
3 0 0 0
4 0 0 0
5 0 0 0
6 0 0 0
7 0 0 0
8 0 0 0
9 0 0 0
10 0 0 0
11 0 0 0
12 0 0 0
13 0 0 0
14 0 0 0
15 0 0 0
16 0 0 0
17 0 0 0
18 0 0 0
19 0 0 0
20 0 0 0
21 0 0 0
22 0 0 0
23 0 0 0
24 0 0 0
25 0 0 0
26 0 0 0
27 0 0 0
28 0 0 0
29 0 0 0
30 0 0 0
31 0 0 0
32 0 0 0
33 0 0 0
34 0 0 0
35 0 0 0
36 0 0 0
37 0 0 0
38 0 0 0
39 0 0 0
40 0 0 0
41 0 0 0
42 0 0 0
43 0 0 0
44 0 0 0
45 0 0 0
46 0 0 0
47 0 0 0
48 0 0 0
