LAMMPS data file via write_data, version 29 Sep 2021, timestep = 60

48 atoms
2 atom types

0 9.648870209999998 xlo xhi
0 8.35616671967889 ylo yhi
0 23.265753916879998 zlo zhi
4.824435104999999 0 0 xy xz yz

Masses

1 69.723
2 14.007

Atoms # atomic

1 1 0 0 13.265753916879998 1 1 0
2 2 12.865160279999994 7.427703750825679 12.619980999999997 0 0 0
3 1 12.865160279999994 7.427703750825679 10.645772916879997 0 0 0
4 2 0 0 10 1 1 0
5 1 12.865160279999994 5.570777813119261 13.265753916879998 0 0 0
6 2 11.257015245 4.642314844266051 12.619980999999997 0 0 0
7 1 11.257015245 4.642314844266051 10.645772916879997 0 0 0
8 2 12.865160279999994 5.570777813119261 10 0 0 0
9 1 1.608145035 2.7853889065596307 13.265753916879998 1 0 0
10 2 9.648870209999998 1.8569259377064198 12.619980999999997 0 0 0
11 1 9.648870209999998 1.8569259377064198 10.645772916879997 0 0 0
12 2 1.608145035 2.7853889065596307 10 1 0 0
13 1 6.43258014 0 13.265753916879998 0 1 0
14 2 9.648870209999998 7.427703750825679 12.619980999999997 0 0 0
15 1 9.648870209999998 7.427703750825679 10.645772916879997 0 0 0
16 2 6.43258014 0 10 0 1 0
17 1 9.64887021 5.570777813119261 13.265753916879998 0 0 0
18 2 8.040725174999999 4.642314844266051 12.619980999999997 0 0 0
19 1 8.040725174999999 4.642314844266051 10.645772916879997 0 0 0
20 2 9.64887021 5.570777813119261 10 0 0 0
21 1 8.040725175 2.7853889065596307 13.265753916879998 0 0 0
22 2 6.432580139999997 1.8569259377064198 12.619980999999997 0 0 0
23 1 6.432580139999997 1.8569259377064198 10.645772916879997 0 0 0
24 2 8.040725175 2.7853889065596307 10 0 0 0
25 1 3.21629007 0 13.265753916879998 0 1 0
26 2 6.432580139999997 7.427703750825679 12.619980999999997 0 0 0
27 1 6.432580139999997 7.427703750825679 10.645772916879997 0 0 0
28 2 3.21629007 0 10 0 1 0
29 1 6.432580139999997 5.570777813119261 13.265753916879998 0 0 0
30 2 4.824435104999999 4.642314844266051 12.619980999999997 0 0 0
31 1 4.824435104999999 4.642314844266051 10.645772916879997 0 0 0
32 2 6.432580139999997 5.570777813119261 10 0 0 0
33 1 4.824435105 2.7853889065596307 13.265753916879998 0 0 0
34 2 3.2162900699999986 1.8569259377064198 12.619980999999997 0 0 0
35 1 3.2162900699999986 1.8569259377064198 10.645772916879997 0 0 0
36 2 4.824435105 2.7853889065596307 10 0 0 0
37 1 1.8868252669888057 1.2293697625559357 15.352683429145975 0 1 0
38 1 10.302637125227637 5.775253159332922 15.778105145034678 0 0 0
39 1 12.928559333763523 6.420607123236572 15.788046801283285 -1 0 0
40 1 5.797905243597304 7.007376065884323 15.560657510803482 0 0 0
41 1 9.654288554209375 3.2348377851560524 15.425128959039146 0 0 0
42 1 2.65803071006512 3.946976482609819 15.433189471389538 0 0 0
43 1 4.468068896498462 1.9920656065036184 15.722252568767836 0 0 0
44 1 7.052086686365808 2.5909507387805286 15.778937275308554 0 0 0
45 1 6.277545675919449 0.002158479964554852 15.676218450164166 0 0 0
46 1 7.675978546242719 5.133523027617511 15.652235520468382 0 0 0
47 1 8.91494327878969 0.6499799224614549 15.806576302360698 0 0 0
48 1 8.450617400842281 7.743197633126541 15.80485968326374 0 0 0

Velocities

1 0 0 0
2 0 0 0
3 0 0 0
4 0 0 0
5 0 0 0
6 0 0 0
7 0 0 0
8 0 0 0
9 0 0 0
10 0 0 0
11 0 0 0
12 0 0 0
13 0 0 0
14 0 0 0
15 0 0 0
16 0 0 0
17 0 0 0
18 0 0 0
19 0 0 0
20 0 0 0
21 0 0 0
22 0 0 0
23 0 0 0
24 0 0 0
25 0 0 0
26 0 0 0
27 0 0 0
28 0 0 0
29 0 0 0
30 0 0 0
31 0 0 0
32 0 0 0
33 0 0 0
34 0 0 0
35 0 0 0
36 0 0 0
37 0 0 0
38 0 0 0
39 0 0 0
40 0 0 0
41 0 0 0
42 0 0 0
43 0 0 0
44 0 0 0
45 0 0 0
46 0 0 0
47 0 0 0
48 0 0 0
